 
  -OEChem-10192104282D

 94 98  0     1  0  0  0  0  0999 V2000
    6.3871    1.0265    0.0000 O   0  0  0  0  0  0  0  0  0  0  0  0
    9.3056    1.9748    0.0000 O   0  0  0  0  0  0  0  0  0  0  0  0
    7.1962   -3.5613    0.0000 O   0  0  0  0  0  0  0  0  0  0  0  0
    5.4641   -3.5613    0.0000 O   0  0  0  0  0  0  0  0  0  0  0  0
    5.4641   -2.5613    0.0000 O   0  0  0  0  0  0  0  0  0  0  0  0
    7.1962   -5.5613    0.0000 O   0  0  0  0  0  0  0  0  0  0  0  0
    5.4641   -6.5613    0.0000 O   0  0  0  0  0  0  0  0  0  0  0  0
   10.2391    5.5568    0.0000 O   0  0  0  0  0  0  0  0  0  0  0  0
    3.7320   -5.5613    0.0000 O   0  0  0  0  0  0  0  0  0  0  0  0
    8.5088    6.5598    0.0000 O   0  0  0  0  0  0  0  0  0  0  0  0
    3.7320   -2.5613    0.0000 O   0  0  0  0  0  0  0  0  0  0  0  0
    3.7320   -6.5613    0.0000 O   0  0  0  0  0  0  0  0  0  0  0  0
    6.3301   -7.0613    0.0000 O   0  0  0  0  0  0  0  0  0  0  0  0
    2.8660   -4.0613    0.0000 O   0  0  0  0  0  0  0  0  0  0  0  0
    6.7768    6.5628    0.0000 O   0  0  0  0  0  0  0  0  0  0  0  0
    2.0000   -2.5613    0.0000 O   0  0  0  0  0  0  0  0  0  0  0  0
    8.0052    1.0265    0.0000 C   0  0  1  0  0  0  0  0  0  0  0  0
    7.6962    1.9776    0.0000 C   0  0  1  0  0  0  0  0  0  0  0  0
    7.1962    0.4387    0.0000 C   0  0  1  0  0  0  0  0  0  0  0  0
    8.5019    2.5598    0.0000 C   0  0  1  0  0  0  0  0  0  0  0  0
    6.6962    1.9776    0.0000 C   0  0  0  0  0  0  0  0  0  0  0  0
    8.9992    1.0291    0.0000 C   0  0  0  0  0  0  0  0  0  0  0  0
    7.1962   -0.5613    0.0000 C   0  0  0  0  0  0  0  0  0  0  0  0
    8.5036    3.5598    0.0000 C   0  0  0  0  0  0  0  0  0  0  0  0
    6.3301   -1.0613    0.0000 C   0  0  0  0  0  0  0  0  0  0  0  0
    8.0622   -1.0613    0.0000 C   0  0  0  0  0  0  0  0  0  0  0  0
    9.3705    4.0583    0.0000 C   0  0  0  0  0  0  0  0  0  0  0  0
    7.6385    4.0613    0.0000 C   0  0  0  0  0  0  0  0  0  0  0  0
    6.3301   -2.0613    0.0000 C   0  0  0  0  0  0  0  0  0  0  0  0
    8.0622   -2.0613    0.0000 C   0  0  0  0  0  0  0  0  0  0  0  0
    7.1962   -2.5613    0.0000 C   0  0  0  0  0  0  0  0  0  0  0  0
    9.3722    5.0583    0.0000 C   0  0  0  0  0  0  0  0  0  0  0  0
    6.3301   -5.0613    0.0000 C   0  0  2  0  0  0  0  0  0  0  0  0
    5.4641   -5.5613    0.0000 C   0  0  2  0  0  0  0  0  0  0  0  0
    6.3301   -4.0613    0.0000 C   0  0  2  0  0  0  0  0  0  0  0  0
    7.6402    5.0613    0.0000 C   0  0  0  0  0  0  0  0  0  0  0  0
    4.5981   -5.0613    0.0000 C   0  0  1  0  0  0  0  0  0  0  0  0
    4.5981   -4.0613    0.0000 C   0  0  1  0  0  0  0  0  0  0  0  0
    8.5071    5.5598    0.0000 C   0  0  0  0  0  0  0  0  0  0  0  0
    3.7320   -3.5613    0.0000 C   0  0  0  0  0  0  0  0  0  0  0  0
    4.5981   -2.0613    0.0000 C   0  0  0  0  0  0  0  0  0  0  0  0
   11.1043    5.0553    0.0000 C   0  0  0  0  0  0  0  0  0  0  0  0
    4.5981   -7.0613    0.0000 C   0  0  0  0  0  0  0  0  0  0  0  0
    7.1962   -6.5613    0.0000 C   0  0  0  0  0  0  0  0  0  0  0  0
    2.8660   -5.0613    0.0000 C   0  0  0  0  0  0  0  0  0  0  0  0
    7.6437    7.0613    0.0000 C   0  0  0  0  0  0  0  0  0  0  0  0
    4.5981   -8.0613    0.0000 C   0  0  0  0  0  0  0  0  0  0  0  0
    8.0622   -7.0613    0.0000 C   0  0  0  0  0  0  0  0  0  0  0  0
    2.0000   -5.5613    0.0000 C   0  0  0  0  0  0  0  0  0  0  0  0
    2.8660   -2.0613    0.0000 C   0  0  0  0  0  0  0  0  0  0  0  0
    7.6454    8.0613    0.0000 C   0  0  0  0  0  0  0  0  0  0  0  0
    2.8660   -1.0613    0.0000 C   0  0  0  0  0  0  0  0  0  0  0  0
    8.2689    0.2185    0.0000 H   0  0  0  0  0  0  0  0  0  0  0  0
    7.4345    2.7863    0.0000 H   0  0  0  0  0  0  0  0  0  0  0  0
    6.6437    0.1573    0.0000 H   0  0  0  0  0  0  0  0  0  0  0  0
    9.0547    2.8405    0.0000 H   0  0  0  0  0  0  0  0  0  0  0  0
    6.7610    2.5942    0.0000 H   0  0  0  0  0  0  0  0  0  0  0  0
    6.0897    2.1065    0.0000 H   0  0  0  0  0  0  0  0  0  0  0  0
    8.9357    0.4124    0.0000 H   0  0  0  0  0  0  0  0  0  0  0  0
    9.6059    0.9011    0.0000 H   0  0  0  0  0  0  0  0  0  0  0  0
    5.7932   -0.7513    0.0000 H   0  0  0  0  0  0  0  0  0  0  0  0
    8.5991   -0.7513    0.0000 H   0  0  0  0  0  0  0  0  0  0  0  0
    9.9069    3.7474    0.0000 H   0  0  0  0  0  0  0  0  0  0  0  0
    7.1010    3.7522    0.0000 H   0  0  0  0  0  0  0  0  0  0  0  0
    8.5991   -2.3713    0.0000 H   0  0  0  0  0  0  0  0  0  0  0  0
    6.3301   -5.6813    0.0000 H   0  0  0  0  0  0  0  0  0  0  0  0
    4.9272   -5.8713    0.0000 H   0  0  0  0  0  0  0  0  0  0  0  0
    6.8671   -4.3713    0.0000 H   0  0  0  0  0  0  0  0  0  0  0  0
    4.5981   -5.6813    0.0000 H   0  0  0  0  0  0  0  0  0  0  0  0
    7.1038    5.3722    0.0000 H   0  0  0  0  0  0  0  0  0  0  0  0
    4.5981   -3.4413    0.0000 H   0  0  0  0  0  0  0  0  0  0  0  0
    3.1215   -3.4536    0.0000 H   0  0  0  0  0  0  0  0  0  0  0  0
    3.5200   -4.1439    0.0000 H   0  0  0  0  0  0  0  0  0  0  0  0
    4.9081   -1.5243    0.0000 H   0  0  0  0  0  0  0  0  0  0  0  0
    4.0611   -1.7513    0.0000 H   0  0  0  0  0  0  0  0  0  0  0  0
    4.2881   -2.5982    0.0000 H   0  0  0  0  0  0  0  0  0  0  0  0
   10.7934    4.5189    0.0000 H   0  0  0  0  0  0  0  0  0  0  0  0
   11.6407    4.7444    0.0000 H   0  0  0  0  0  0  0  0  0  0  0  0
   11.4152    5.5917    0.0000 H   0  0  0  0  0  0  0  0  0  0  0  0
    3.9781   -8.0613    0.0000 H   0  0  0  0  0  0  0  0  0  0  0  0
    4.5981   -8.6813    0.0000 H   0  0  0  0  0  0  0  0  0  0  0  0
    5.2181   -8.0613    0.0000 H   0  0  0  0  0  0  0  0  0  0  0  0
    7.7522   -7.5982    0.0000 H   0  0  0  0  0  0  0  0  0  0  0  0
    8.5991   -7.3713    0.0000 H   0  0  0  0  0  0  0  0  0  0  0  0
    8.3722   -6.5243    0.0000 H   0  0  0  0  0  0  0  0  0  0  0  0
    1.6900   -5.0243    0.0000 H   0  0  0  0  0  0  0  0  0  0  0  0
    1.4631   -5.8713    0.0000 H   0  0  0  0  0  0  0  0  0  0  0  0
    2.3100   -6.0982    0.0000 H   0  0  0  0  0  0  0  0  0  0  0  0
    8.2654    8.0602    0.0000 H   0  0  0  0  0  0  0  0  0  0  0  0
    7.6465    8.6813    0.0000 H   0  0  0  0  0  0  0  0  0  0  0  0
    7.0254    8.0624    0.0000 H   0  0  0  0  0  0  0  0  0  0  0  0
    3.4860   -1.0613    0.0000 H   0  0  0  0  0  0  0  0  0  0  0  0
    2.8660   -0.4413    0.0000 H   0  0  0  0  0  0  0  0  0  0  0  0
    2.2460   -1.0613    0.0000 H   0  0  0  0  0  0  0  0  0  0  0  0
  1 19  1  0  0  0  0
  1 21  1  0  0  0  0
  2 20  1  0  0  0  0
  2 22  1  0  0  0  0
  3 31  1  0  0  0  0
 35  3  1  1  0  0  0
  4 35  1  0  0  0  0
  4 38  1  0  0  0  0
  5 29  1  0  0  0  0
  5 41  1  0  0  0  0
 33  6  1  6  0  0  0
  6 44  1  0  0  0  0
 34  7  1  1  0  0  0
  7 43  1  0  0  0  0
  8 32  1  0  0  0  0
  8 42  1  0  0  0  0
 37  9  1  6  0  0  0
  9 45  1  0  0  0  0
 10 39  1  0  0  0  0
 10 46  1  0  0  0  0
 11 40  1  0  0  0  0
 11 50  1  0  0  0  0
 12 43  2  0  0  0  0
 13 44  2  0  0  0  0
 14 45  2  0  0  0  0
 15 46  2  0  0  0  0
 16 50  2  0  0  0  0
 17 18  1  0  0  0  0
 17 19  1  0  0  0  0
 17 22  1  0  0  0  0
 17 53  1  1  0  0  0
 18 20  1  0  0  0  0
 18 21  1  0  0  0  0
 18 54  1  1  0  0  0
 19 23  1  1  0  0  0
 19 55  1  0  0  0  0
 20 24  1  1  0  0  0
 20 56  1  0  0  0  0
 21 57  1  0  0  0  0
 21 58  1  0  0  0  0
 22 59  1  0  0  0  0
 22 60  1  0  0  0  0
 23 25  2  0  0  0  0
 23 26  1  0  0  0  0
 24 27  2  0  0  0  0
 24 28  1  0  0  0  0
 25 29  1  0  0  0  0
 25 61  1  0  0  0  0
 26 30  2  0  0  0  0
 26 62  1  0  0  0  0
 27 32  1  0  0  0  0
 27 63  1  0  0  0  0
 28 36  2  0  0  0  0
 28 64  1  0  0  0  0
 29 31  2  0  0  0  0
 30 31  1  0  0  0  0
 30 65  1  0  0  0  0
 32 39  2  0  0  0  0
 33 34  1  0  0  0  0
 33 35  1  0  0  0  0
 33 66  1  0  0  0  0
 34 37  1  0  0  0  0
 34 67  1  0  0  0  0
 35 68  1  0  0  0  0
 36 39  1  0  0  0  0
 36 70  1  0  0  0  0
 37 38  1  0  0  0  0
 37 69  1  0  0  0  0
 38 40  1  1  0  0  0
 38 71  1  0  0  0  0
 40 72  1  0  0  0  0
 40 73  1  0  0  0  0
 41 74  1  0  0  0  0
 41 75  1  0  0  0  0
 41 76  1  0  0  0  0
 42 77  1  0  0  0  0
 42 78  1  0  0  0  0
 42 79  1  0  0  0  0
 43 47  1  0  0  0  0
 44 48  1  0  0  0  0
 45 49  1  0  0  0  0
 46 51  1  0  0  0  0
 47 80  1  0  0  0  0
 47 81  1  0  0  0  0
 47 82  1  0  0  0  0
 48 83  1  0  0  0  0
 48 84  1  0  0  0  0
 48 85  1  0  0  0  0
 49 86  1  0  0  0  0
 49 87  1  0  0  0  0
 49 88  1  0  0  0  0
 50 52  1  0  0  0  0
 51 89  1  0  0  0  0
 51 90  1  0  0  0  0
 51 91  1  0  0  0  0
 52 92  1  0  0  0  0
 52 93  1  0  0  0  0
 52 94  1  0  0  0  0
M  END
> <PUBCHEM_COMPOUND_CID>
13916138

> <PUBCHEM_COMPOUND_CANONICALIZED>
1

> <PUBCHEM_CACTVS_COMPLEXITY>
1270

> <PUBCHEM_CACTVS_HBOND_ACCEPTOR>
16

> <PUBCHEM_CACTVS_HBOND_DONOR>
0

> <PUBCHEM_CACTVS_ROTATABLE_BOND>
17

> <PUBCHEM_CACTVS_SUBSKEYS>
AAADcfB8PgAAAAAAAAAAAAAAAAAAASJAAAA0YIAAAAASAAABQAAAGgAAAAAADRSwmAMyDoAABACIAiDSCAACCAAgIAAIiAAGiIgdJiKEMRqiOiKlwBEOqAfA4PwOoAABAAAAQABAAAIAAACAAAAAAAAAAA==

> <PUBCHEM_IUPAC_OPENEYE_NAME>
[(2R,3R,4S,5R,6S)-6-[4-[(3S,3aR,6S,6aR)-6-(4-acetoxy-3-methoxy-phenyl)-1,3,3a,4,6,6a-hexahydrofuro[3,4-c]furan-3-yl]-2-methoxy-phenoxy]-3,4,5-triacetoxy-tetrahydropyran-2-yl]methyl acetate

> <PUBCHEM_IUPAC_CAS_NAME>
acetic acid [(2R,3R,4S,5R,6S)-6-[4-[(3S,3aR,6S,6aR)-6-(4-acetyloxy-3-methoxyphenyl)-1,3,3a,4,6,6a-hexahydrofuro[3,4-c]furan-3-yl]-2-methoxyphenoxy]-3,4,5-triacetyloxy-2-oxanyl]methyl ester

> <PUBCHEM_IUPAC_NAME_MARKUP>
[(2<I>R</I>,3<I>R</I>,4<I>S</I>,5<I>R</I>,6<I>S</I>)-6-[4-[(3<I>S</I>,3<I>a</I><I>R</I>,6<I>S</I>,6<I>a</I><I>R</I>)-6-(4-acetyloxy-3-methoxyphenyl)-1,3,3<I>a</I>,4,6,6<I>a</I>-hexahydrofuro[3,4-c]furan-3-yl]-2-methoxyphenoxy]-3,4,5-triacetyloxyoxan-2-yl]methyl acetate

> <PUBCHEM_IUPAC_NAME>
[(2R,3R,4S,5R,6S)-6-[4-[(3S,3aR,6S,6aR)-6-(4-acetyloxy-3-methoxyphenyl)-1,3,3a,4,6,6a-hexahydrofuro[3,4-c]furan-3-yl]-2-methoxyphenoxy]-3,4,5-triacetyloxyoxan-2-yl]methyl acetate

> <PUBCHEM_IUPAC_SYSTEMATIC_NAME>
[(2R,3R,4S,5R,6S)-6-[4-[(3S,3aR,6S,6aR)-6-(4-acetyloxy-3-methoxy-phenyl)-1,3,3a,4,6,6a-hexahydrofuro[3,4-c]furan-3-yl]-2-methoxy-phenoxy]-3,4,5-triacetyloxy-oxan-2-yl]methyl ethanoate

> <PUBCHEM_IUPAC_TRADITIONAL_NAME>
acetic acid [(2R,3R,4S,5R,6S)-6-[4-[(3S,3aR,6S,6aR)-6-(4-acetoxy-3-methoxy-phenyl)-1,3,3a,4,6,6a-hexahydrofuro[3,4-c]furan-3-yl]-2-methoxy-phenoxy]-3,4,5-triacetoxy-tetrahydropyran-2-yl]methyl ester

> <PUBCHEM_IUPAC_INCHI>
InChI=1S/C36H42O16/c1-17(37)44-16-30-33(48-19(3)39)34(49-20(4)40)35(50-21(5)41)36(52-30)51-27-11-9-23(13-29(27)43-7)32-25-15-45-31(24(25)14-46-32)22-8-10-26(47-18(2)38)28(12-22)42-6/h8-13,24-25,30-36H,14-16H2,1-7H3/t24-,25-,30+,31+,32+,33+,34-,35+,36+/m0/s1

> <PUBCHEM_IUPAC_INCHIKEY>
IVTDVPBEFUNMCO-ANHVYHQPSA-N

> <PUBCHEM_XLOGP3_AA>
2.3

> <PUBCHEM_EXACT_MASS>
730.24728525

> <PUBCHEM_MOLECULAR_FORMULA>
C36H42O16

> <PUBCHEM_MOLECULAR_WEIGHT>
730.7

> <PUBCHEM_OPENEYE_CAN_SMILES>
CC(=O)OCC1C(C(C(C(O1)OC2=C(C=C(C=C2)C3C4COC(C4CO3)C5=CC(=C(C=C5)OC(=O)C)OC)OC)OC(=O)C)OC(=O)C)OC(=O)C

> <PUBCHEM_OPENEYE_ISO_SMILES>
CC(=O)OC[C@@H]1[C@H]([C@@H]([C@H]([C@@H](O1)OC2=C(C=C(C=C2)[C@@H]3[C@H]4CO[C@@H]([C@H]4CO3)C5=CC(=C(C=C5)OC(=O)C)OC)OC)OC(=O)C)OC(=O)C)OC(=O)C

> <PUBCHEM_CACTVS_TPSA>
187

> <PUBCHEM_MONOISOTOPIC_WEIGHT>
730.24728525

> <PUBCHEM_TOTAL_CHARGE>
0

> <PUBCHEM_HEAVY_ATOM_COUNT>
52

> <PUBCHEM_ATOM_DEF_STEREO_COUNT>
9

> <PUBCHEM_ATOM_UDEF_STEREO_COUNT>
0

> <PUBCHEM_BOND_DEF_STEREO_COUNT>
0

> <PUBCHEM_BOND_UDEF_STEREO_COUNT>
0

> <PUBCHEM_ISOTOPIC_ATOM_COUNT>
0

> <PUBCHEM_COMPONENT_COUNT>
1

> <PUBCHEM_CACTVS_TAUTO_COUNT>
-1

> <PUBCHEM_COORDINATE_TYPE>
1
5
255

> <PUBCHEM_BONDANNOTATIONS>
17  53  5
18  54  5
19  23  5
20  24  5
23  25  8
23  26  8
24  27  8
24  28  8
25  29  8
26  30  8
27  32  8
28  36  8
29  31  8
35  3  5
30  31  8
32  39  8
36  39  8
38  40  5
33  6  6
34  7  5
37  9  6

$$$$
