 
  -OEChem-10192103482D

 74 73  0     1  0  0  0  0  0999 V2000
    7.7331   -1.7500    0.0000 O   0  0  0  0  0  0  0  0  0  0  0  0
    9.4651    1.2500    0.0000 O   0  0  0  0  0  0  0  0  0  0  0  0
   12.9292    0.2500    0.0000 O   0  0  0  0  0  0  0  0  0  0  0  0
    6.8671   -1.2500    0.0000 O   0  0  0  0  0  0  0  0  0  0  0  0
   13.7953   -3.2500    0.0000 O   0  0  0  0  0  0  0  0  0  0  0  0
   12.0632   -3.2500    0.0000 O   0  0  0  0  0  0  0  0  0  0  0  0
   12.0632    2.7500    0.0000 O   0  0  0  0  0  0  0  0  0  0  0  0
   12.9292    1.2500    0.0000 O   0  0  0  0  0  0  0  0  0  0  0  0
    4.2690    3.2500    0.0000 O   0  0  0  0  0  0  0  0  0  0  0  0
    4.2690    1.2500    0.0000 O   0  0  0  0  0  0  0  0  0  0  0  0
    6.0010    3.2500    0.0000 O   0  0  0  0  0  0  0  0  0  0  0  0
    7.7331    0.2500    0.0000 N   0  0  0  0  0  0  0  0  0  0  0  0
   10.3312   -0.2500    0.0000 N   0  0  0  0  0  0  0  0  0  0  0  0
   12.0632   -1.2500    0.0000 N   0  0  0  0  0  0  0  0  0  0  0  0
    5.1350   -0.2500    0.0000 N   0  0  0  0  0  0  0  0  0  0  0  0
   17.2594   -1.2500    0.0000 N   0  0  0  0  0  0  0  0  0  0  0  0
    2.5369    0.2500    0.0000 N   0  0  0  0  0  0  0  0  0  0  0  0
    8.5991   -0.2500    0.0000 C   0  0  1  0  0  0  0  0  0  0  0  0
   11.1972    0.2500    0.0000 C   0  0  2  0  0  0  0  0  0  0  0  0
   12.9292   -1.7500    0.0000 C   0  0  1  0  0  0  0  0  0  0  0  0
   13.7953   -1.2500    0.0000 C   0  0  0  0  0  0  0  0  0  0  0  0
    8.5991   -1.2500    0.0000 C   0  0  1  0  0  0  0  0  0  0  0  0
   14.6613   -1.7500    0.0000 C   0  0  0  0  0  0  0  0  0  0  0  0
    6.0010    0.2500    0.0000 C   0  0  1  0  0  0  0  0  0  0  0  0
    9.4651    0.2500    0.0000 C   0  0  0  0  0  0  0  0  0  0  0  0
   12.0632   -0.2500    0.0000 C   0  0  0  0  0  0  0  0  0  0  0  0
    6.0010    1.2500    0.0000 C   0  0  0  0  0  0  0  0  0  0  0  0
    6.8671   -0.2500    0.0000 C   0  0  0  0  0  0  0  0  0  0  0  0
   15.5273   -1.2500    0.0000 C   0  0  0  0  0  0  0  0  0  0  0  0
   11.1972    1.2500    0.0000 C   0  0  0  0  0  0  0  0  0  0  0  0
    9.4651   -1.7500    0.0000 C   0  0  0  0  0  0  0  0  0  0  0  0
    5.1350    1.7500    0.0000 C   0  0  0  0  0  0  0  0  0  0  0  0
   12.9292   -2.7500    0.0000 C   0  0  0  0  0  0  0  0  0  0  0  0
   16.3933   -1.7500    0.0000 C   0  0  0  0  0  0  0  0  0  0  0  0
   12.0632    1.7500    0.0000 C   0  0  0  0  0  0  0  0  0  0  0  0
    4.2690    0.2500    0.0000 C   0  0  0  0  0  0  0  0  0  0  0  0
    5.1350    2.7500    0.0000 C   0  0  0  0  0  0  0  0  0  0  0  0
    3.4030   -0.2500    0.0000 C   0  0  0  0  0  0  0  0  0  0  0  0
    8.5991    0.3700    0.0000 H   0  0  0  0  0  0  0  0  0  0  0  0
   10.6603    0.5600    0.0000 H   0  0  0  0  0  0  0  0  0  0  0  0
   12.3923   -2.0600    0.0000 H   0  0  0  0  0  0  0  0  0  0  0  0
   14.1938   -0.7751    0.0000 H   0  0  0  0  0  0  0  0  0  0  0  0
   13.3967   -0.7751    0.0000 H   0  0  0  0  0  0  0  0  0  0  0  0
    8.5991   -1.8700    0.0000 H   0  0  0  0  0  0  0  0  0  0  0  0
   14.2628   -2.2250    0.0000 H   0  0  0  0  0  0  0  0  0  0  0  0
   15.0598   -2.2250    0.0000 H   0  0  0  0  0  0  0  0  0  0  0  0
    5.4641    0.5600    0.0000 H   0  0  0  0  0  0  0  0  0  0  0  0
    7.7331    0.8700    0.0000 H   0  0  0  0  0  0  0  0  0  0  0  0
   10.3312   -0.8700    0.0000 H   0  0  0  0  0  0  0  0  0  0  0  0
   11.5263   -1.5600    0.0000 H   0  0  0  0  0  0  0  0  0  0  0  0
    6.6116    1.1423    0.0000 H   0  0  0  0  0  0  0  0  0  0  0  0
    6.2131    1.8326    0.0000 H   0  0  0  0  0  0  0  0  0  0  0  0
   15.9258   -0.7751    0.0000 H   0  0  0  0  0  0  0  0  0  0  0  0
   15.1288   -0.7751    0.0000 H   0  0  0  0  0  0  0  0  0  0  0  0
   10.9851    1.8326    0.0000 H   0  0  0  0  0  0  0  0  0  0  0  0
   10.5866    1.1423    0.0000 H   0  0  0  0  0  0  0  0  0  0  0  0
    9.1551   -2.2869    0.0000 H   0  0  0  0  0  0  0  0  0  0  0  0
   10.0021   -2.0600    0.0000 H   0  0  0  0  0  0  0  0  0  0  0  0
    9.7751   -1.2131    0.0000 H   0  0  0  0  0  0  0  0  0  0  0  0
    4.5244    1.8577    0.0000 H   0  0  0  0  0  0  0  0  0  0  0  0
    4.9230    1.1674    0.0000 H   0  0  0  0  0  0  0  0  0  0  0  0
    5.1350   -0.8700    0.0000 H   0  0  0  0  0  0  0  0  0  0  0  0
   15.9948   -2.2250    0.0000 H   0  0  0  0  0  0  0  0  0  0  0  0
   16.7919   -2.2250    0.0000 H   0  0  0  0  0  0  0  0  0  0  0  0
    7.7331   -2.3700    0.0000 H   0  0  0  0  0  0  0  0  0  0  0  0
   17.7963   -1.5600    0.0000 H   0  0  0  0  0  0  0  0  0  0  0  0
   17.2594   -0.6300    0.0000 H   0  0  0  0  0  0  0  0  0  0  0  0
    3.0044   -0.7249    0.0000 H   0  0  0  0  0  0  0  0  0  0  0  0
    3.8015   -0.7249    0.0000 H   0  0  0  0  0  0  0  0  0  0  0  0
   13.7953   -3.8700    0.0000 H   0  0  0  0  0  0  0  0  0  0  0  0
   12.6002    3.0600    0.0000 H   0  0  0  0  0  0  0  0  0  0  0  0
    2.0000   -0.0600    0.0000 H   0  0  0  0  0  0  0  0  0  0  0  0
    2.5369    0.8700    0.0000 H   0  0  0  0  0  0  0  0  0  0  0  0
    4.2690    3.8700    0.0000 H   0  0  0  0  0  0  0  0  0  0  0  0
 22  1  1  1  0  0  0
  1 65  1  0  0  0  0
  2 25  2  0  0  0  0
  3 26  2  0  0  0  0
  4 28  2  0  0  0  0
  5 33  1  0  0  0  0
  5 70  1  0  0  0  0
  6 33  2  0  0  0  0
  7 35  1  0  0  0  0
  7 71  1  0  0  0  0
  8 35  2  0  0  0  0
  9 37  1  0  0  0  0
  9 74  1  0  0  0  0
 10 36  2  0  0  0  0
 11 37  2  0  0  0  0
 18 12  1  6  0  0  0
 12 28  1  0  0  0  0
 12 48  1  0  0  0  0
 19 13  1  1  0  0  0
 13 25  1  0  0  0  0
 13 49  1  0  0  0  0
 20 14  1  1  0  0  0
 14 26  1  0  0  0  0
 14 50  1  0  0  0  0
 24 15  1  1  0  0  0
 15 36  1  0  0  0  0
 15 62  1  0  0  0  0
 16 34  1  0  0  0  0
 16 66  1  0  0  0  0
 16 67  1  0  0  0  0
 17 38  1  0  0  0  0
 17 72  1  0  0  0  0
 17 73  1  0  0  0  0
 18 22  1  0  0  0  0
 18 25  1  0  0  0  0
 18 39  1  0  0  0  0
 19 26  1  0  0  0  0
 19 30  1  0  0  0  0
 19 40  1  0  0  0  0
 20 21  1  0  0  0  0
 20 33  1  0  0  0  0
 20 41  1  0  0  0  0
 21 23  1  0  0  0  0
 21 42  1  0  0  0  0
 21 43  1  0  0  0  0
 22 31  1  0  0  0  0
 22 44  1  0  0  0  0
 23 29  1  0  0  0  0
 23 45  1  0  0  0  0
 23 46  1  0  0  0  0
 24 27  1  0  0  0  0
 24 28  1  0  0  0  0
 24 47  1  0  0  0  0
 27 32  1  0  0  0  0
 27 51  1  0  0  0  0
 27 52  1  0  0  0  0
 29 34  1  0  0  0  0
 29 53  1  0  0  0  0
 29 54  1  0  0  0  0
 30 35  1  0  0  0  0
 30 55  1  0  0  0  0
 30 56  1  0  0  0  0
 31 57  1  0  0  0  0
 31 58  1  0  0  0  0
 31 59  1  0  0  0  0
 32 37  1  0  0  0  0
 32 60  1  0  0  0  0
 32 61  1  0  0  0  0
 34 63  1  0  0  0  0
 34 64  1  0  0  0  0
 36 38  1  0  0  0  0
 38 68  1  0  0  0  0
 38 69  1  0  0  0  0
M  END
> <PUBCHEM_COMPOUND_CID>
15981164

> <PUBCHEM_COMPOUND_CANONICALIZED>
1

> <PUBCHEM_CACTVS_COMPLEXITY>
869

> <PUBCHEM_CACTVS_HBOND_ACCEPTOR>
13

> <PUBCHEM_CACTVS_HBOND_DONOR>
10

> <PUBCHEM_CACTVS_ROTATABLE_BOND>
19

> <PUBCHEM_CACTVS_SUBSKEYS>
AAADcfB7vAAAAAAAAAAAAAAAAAAAAAAAAAAAAAAAAAAAAAAAAAAAHgAQCAAACDzhgAYCCALAAgAIAAGQGAAAAAAAAAAAAIGIAAACUB4AgCAUQAAGNgCQAAG/XwIAAAAAAAAAAAAAAAAAAAAAAAAAAAAAAA==

> <PUBCHEM_IUPAC_OPENEYE_NAME>
(2S)-6-amino-2-[[(2S)-2-[[(2S,3R)-2-[[(2S)-2-[(2-aminoacetyl)amino]-4-carboxy-butanoyl]amino]-3-hydroxy-butanoyl]amino]-3-carboxy-propanoyl]amino]hexanoic acid

> <PUBCHEM_IUPAC_CAS_NAME>
(2S)-6-amino-2-[[(2S)-2-[[(2S,3R)-2-[[(2S)-2-[(2-amino-1-oxoethyl)amino]-4-carboxy-1-oxobutyl]amino]-3-hydroxy-1-oxobutyl]amino]-3-carboxy-1-oxopropyl]amino]hexanoic acid

> <PUBCHEM_IUPAC_NAME_MARKUP>
(2<I>S</I>)-6-amino-2-[[(2<I>S</I>)-2-[[(2<I>S</I>,3<I>R</I>)-2-[[(2<I>S</I>)-2-[(2-aminoacetyl)amino]-4-carboxybutanoyl]amino]-3-hydroxybutanoyl]amino]-3-carboxypropanoyl]amino]hexanoic acid

> <PUBCHEM_IUPAC_NAME>
(2S)-6-amino-2-[[(2S)-2-[[(2S,3R)-2-[[(2S)-2-[(2-aminoacetyl)amino]-4-carboxybutanoyl]amino]-3-hydroxybutanoyl]amino]-3-carboxypropanoyl]amino]hexanoic acid

> <PUBCHEM_IUPAC_SYSTEMATIC_NAME>
(2S)-6-azanyl-2-[[(2S)-2-[[(2S,3R)-2-[[(2S)-2-(2-azanylethanoylamino)-5-oxidanyl-5-oxidanylidene-pentanoyl]amino]-3-oxidanyl-butanoyl]amino]-4-oxidanyl-4-oxidanylidene-butanoyl]amino]hexanoic acid

> <PUBCHEM_IUPAC_TRADITIONAL_NAME>
(2S)-6-amino-2-[[(2S)-3-carboxy-2-[[(2S,3R)-2-[[(2S)-4-carboxy-2-(glycylamino)butanoyl]amino]-3-hydroxy-butanoyl]amino]propanoyl]amino]hexanoic acid

> <PUBCHEM_IUPAC_INCHI>
InChI=1S/C21H36N6O11/c1-10(28)17(27-18(34)11(5-6-15(30)31)24-14(29)9-23)20(36)26-13(8-16(32)33)19(35)25-12(21(37)38)4-2-3-7-22/h10-13,17,28H,2-9,22-23H2,1H3,(H,24,29)(H,25,35)(H,26,36)(H,27,34)(H,30,31)(H,32,33)(H,37,38)/t10-,11+,12+,13+,17+/m1/s1

> <PUBCHEM_IUPAC_INCHIKEY>
WWDWLCDPVGHCFR-LAIFWZPXSA-N

> <PUBCHEM_XLOGP3_AA>
-8.9

> <PUBCHEM_EXACT_MASS>
548.24420599

> <PUBCHEM_MOLECULAR_FORMULA>
C21H36N6O11

> <PUBCHEM_MOLECULAR_WEIGHT>
548.5

> <PUBCHEM_OPENEYE_CAN_SMILES>
CC(C(C(=O)NC(CC(=O)O)C(=O)NC(CCCCN)C(=O)O)NC(=O)C(CCC(=O)O)NC(=O)CN)O

> <PUBCHEM_OPENEYE_ISO_SMILES>
C[C@H]([C@@H](C(=O)N[C@@H](CC(=O)O)C(=O)N[C@@H](CCCCN)C(=O)O)NC(=O)[C@H](CCC(=O)O)NC(=O)CN)O

> <PUBCHEM_CACTVS_TPSA>
301

> <PUBCHEM_MONOISOTOPIC_WEIGHT>
548.24420599

> <PUBCHEM_TOTAL_CHARGE>
0

> <PUBCHEM_HEAVY_ATOM_COUNT>
38

> <PUBCHEM_ATOM_DEF_STEREO_COUNT>
5

> <PUBCHEM_ATOM_UDEF_STEREO_COUNT>
0

> <PUBCHEM_BOND_DEF_STEREO_COUNT>
0

> <PUBCHEM_BOND_UDEF_STEREO_COUNT>
0

> <PUBCHEM_ISOTOPIC_ATOM_COUNT>
0

> <PUBCHEM_COMPONENT_COUNT>
1

> <PUBCHEM_CACTVS_TAUTO_COUNT>
-1

> <PUBCHEM_COORDINATE_TYPE>
1
5
255

> <PUBCHEM_BONDANNOTATIONS>
22  1  5
18  12  6
19  13  5
20  14  5
24  15  5

$$$$
