 
  -OEChem-10192104322D

 83 88  0     1  0  0  0  0  0999 V2000
    7.0984    3.3028    0.0000 O   0  0  0  0  0  0  0  0  0  0  0  0
   10.0232    1.5329    0.0000 O   0  0  0  0  0  0  0  0  0  0  0  0
    6.8671    0.8478    0.0000 O   0  0  0  0  0  0  0  0  0  0  0  0
    6.8671    5.6522    0.0000 O   0  0  0  0  0  0  0  0  0  0  0  0
    7.7331   -0.6522    0.0000 O   0  0  0  0  0  0  0  0  0  0  0  0
    5.1350   -0.1522    0.0000 O   0  0  0  0  0  0  0  0  0  0  0  0
    6.8671   -2.1521    0.0000 O   0  0  0  0  0  0  0  0  0  0  0  0
    5.1350   -3.1521    0.0000 O   0  0  0  0  0  0  0  0  0  0  0  0
    4.2690   -1.6522    0.0000 O   0  0  0  0  0  0  0  0  0  0  0  0
    6.0010    1.3478    0.0000 O   0  0  0  0  0  0  0  0  0  0  0  0
    6.0010   -3.6522    0.0000 O   0  0  0  0  0  0  0  0  0  0  0  0
    2.5369   -3.6522    0.0000 O   0  0  0  0  0  0  0  0  0  0  0  0
    3.4030   -2.1521    0.0000 O   0  0  0  0  0  0  0  0  0  0  0  0
   11.0277    2.2989    0.0000 N   0  0  3  0  0  0  0  0  0  0  0  0
    8.5568    2.7745    0.0000 C   0  0  1  0  0  0  0  0  0  0  0  0
    9.3804    2.2989    0.0000 C   0  0  1  0  0  0  0  0  0  0  0  0
   10.2041    2.7745    0.0000 C   0  0  1  0  0  0  0  0  0  0  0  0
    7.7331    2.2989    0.0000 C   0  0  2  0  0  0  0  0  0  0  0  0
    9.1063    3.4719    0.0000 C   0  0  0  0  0  0  0  0  0  0  0  0
    8.5568    3.7255    0.0000 C   0  0  0  0  0  0  0  0  0  0  0  0
    9.3804    1.3478    0.0000 C   0  0  0  0  0  0  0  0  0  0  0  0
   10.2041    3.7255    0.0000 C   0  0  0  0  0  0  0  0  0  0  0  0
   10.4589    3.4719    0.0000 C   0  0  0  0  0  0  0  0  0  0  0  0
    9.3804    4.2011    0.0000 C   0  0  0  0  0  0  0  0  0  0  0  0
    7.7331    4.2011    0.0000 C   0  0  0  0  0  0  0  0  0  0  0  0
    7.7331    1.3478    0.0000 C   0  0  0  0  0  0  0  0  0  0  0  0
    8.5568    0.8723    0.0000 C   0  0  0  0  0  0  0  0  0  0  0  0
   11.7089    1.5668    0.0000 C   0  0  0  0  0  0  0  0  0  0  0  0
    9.3804    5.1522    0.0000 C   0  0  0  0  0  0  0  0  0  0  0  0
    7.7331    5.1522    0.0000 C   0  0  0  0  0  0  0  0  0  0  0  0
    8.5568    5.6277    0.0000 C   0  0  0  0  0  0  0  0  0  0  0  0
    6.8671   -0.1522    0.0000 C   0  0  0  0  0  0  0  0  0  0  0  0
    6.8671    6.6522    0.0000 C   0  0  0  0  0  0  0  0  0  0  0  0
    6.0010   -0.6522    0.0000 C   0  0  1  0  0  0  0  0  0  0  0  0
    6.0010   -1.6522    0.0000 C   0  0  2  0  0  0  0  0  0  0  0  0
    5.1350   -2.1521    0.0000 C   0  0  0  0  0  0  0  0  0  0  0  0
    5.1350    0.8478    0.0000 C   0  0  0  0  0  0  0  0  0  0  0  0
    6.8671   -3.1521    0.0000 C   0  0  0  0  0  0  0  0  0  0  0  0
    4.2690    1.3478    0.0000 C   0  0  0  0  0  0  0  0  0  0  0  0
    4.2690   -3.6522    0.0000 C   0  0  1  0  0  0  0  0  0  0  0  0
    7.7331   -3.6522    0.0000 C   0  0  0  0  0  0  0  0  0  0  0  0
    4.2690   -4.6522    0.0000 C   0  0  0  0  0  0  0  0  0  0  0  0
    3.4030   -3.1521    0.0000 C   0  0  0  0  0  0  0  0  0  0  0  0
    5.1350   -5.1522    0.0000 C   0  0  0  0  0  0  0  0  0  0  0  0
    3.4030   -5.1522    0.0000 C   0  0  0  0  0  0  0  0  0  0  0  0
    5.1350   -6.1522    0.0000 C   0  0  0  0  0  0  0  0  0  0  0  0
    3.4030   -6.1522    0.0000 C   0  0  0  0  0  0  0  0  0  0  0  0
    4.2690   -6.6522    0.0000 C   0  0  0  0  0  0  0  0  0  0  0  0
   10.4955    1.9760    0.0000 H   0  0  0  0  0  0  0  0  0  0  0  0
    6.9166    2.0625    0.0000 H   0  0  0  0  0  0  0  0  0  0  0  0
    9.2430    4.0766    0.0000 H   0  0  0  0  0  0  0  0  0  0  0  0
    8.5466    3.7387    0.0000 H   0  0  0  0  0  0  0  0  0  0  0  0
    9.5925    0.7652    0.0000 H   0  0  0  0  0  0  0  0  0  0  0  0
    9.9910    1.4555    0.0000 H   0  0  0  0  0  0  0  0  0  0  0  0
   10.8146    3.6179    0.0000 H   0  0  0  0  0  0  0  0  0  0  0  0
   10.4161    4.3081    0.0000 H   0  0  0  0  0  0  0  0  0  0  0  0
   11.0510    3.6557    0.0000 H   0  0  0  0  0  0  0  0  0  0  0  0
   10.3659    4.0849    0.0000 H   0  0  0  0  0  0  0  0  0  0  0  0
    8.5568    0.2523    0.0000 H   0  0  0  0  0  0  0  0  0  0  0  0
   10.1309    0.9223    0.0000 H   0  0  0  0  0  0  0  0  0  0  0  0
   11.2550    1.1445    0.0000 H   0  0  0  0  0  0  0  0  0  0  0  0
   12.1312    1.1129    0.0000 H   0  0  0  0  0  0  0  0  0  0  0  0
   12.1628    1.9891    0.0000 H   0  0  0  0  0  0  0  0  0  0  0  0
    9.9173    5.4622    0.0000 H   0  0  0  0  0  0  0  0  0  0  0  0
    8.5568    6.2477    0.0000 H   0  0  0  0  0  0  0  0  0  0  0  0
    7.4871    6.6522    0.0000 H   0  0  0  0  0  0  0  0  0  0  0  0
    6.8671    7.2722    0.0000 H   0  0  0  0  0  0  0  0  0  0  0  0
    6.2471    6.6522    0.0000 H   0  0  0  0  0  0  0  0  0  0  0  0
    6.0010   -0.0322    0.0000 H   0  0  0  0  0  0  0  0  0  0  0  0
    6.5380   -1.3422    0.0000 H   0  0  0  0  0  0  0  0  0  0  0  0
    4.5790    1.8848    0.0000 H   0  0  0  0  0  0  0  0  0  0  0  0
    3.7321    1.6578    0.0000 H   0  0  0  0  0  0  0  0  0  0  0  0
    3.9590    0.8109    0.0000 H   0  0  0  0  0  0  0  0  0  0  0  0
    4.8059   -3.9622    0.0000 H   0  0  0  0  0  0  0  0  0  0  0  0
    7.4231   -4.1891    0.0000 H   0  0  0  0  0  0  0  0  0  0  0  0
    8.2700   -3.9622    0.0000 H   0  0  0  0  0  0  0  0  0  0  0  0
    8.0431   -3.1152    0.0000 H   0  0  0  0  0  0  0  0  0  0  0  0
    5.6720   -4.8422    0.0000 H   0  0  0  0  0  0  0  0  0  0  0  0
    2.8660   -4.8422    0.0000 H   0  0  0  0  0  0  0  0  0  0  0  0
    2.0000   -3.3422    0.0000 H   0  0  0  0  0  0  0  0  0  0  0  0
    5.6719   -6.4622    0.0000 H   0  0  0  0  0  0  0  0  0  0  0  0
    2.8660   -6.4622    0.0000 H   0  0  0  0  0  0  0  0  0  0  0  0
    4.2690   -7.2722    0.0000 H   0  0  0  0  0  0  0  0  0  0  0  0
  1 18  1  0  0  0  0
  1 25  1  0  0  0  0
 16  2  1  1  0  0  0
  2 60  1  0  0  0  0
  3 26  1  0  0  0  0
  3 32  1  0  0  0  0
  4 30  1  0  0  0  0
  4 33  1  0  0  0  0
  5 32  2  0  0  0  0
 34  6  1  1  0  0  0
  6 37  1  0  0  0  0
 35  7  1  1  0  0  0
  7 38  1  0  0  0  0
  8 36  1  0  0  0  0
 40  8  1  1  0  0  0
  9 36  2  0  0  0  0
 10 37  2  0  0  0  0
 11 38  2  0  0  0  0
 12 43  1  0  0  0  0
 12 80  1  0  0  0  0
 13 43  2  0  0  0  0
 14 17  1  0  0  0  0
 14 23  1  0  0  0  0
 14 28  1  0  0  0  0
 15 16  1  0  0  0  0
 15 18  1  0  0  0  0
 15 19  1  1  0  0  0
 15 20  1  0  0  0  0
 16 17  1  0  0  0  0
 16 21  1  0  0  0  0
 17 22  1  0  0  0  0
 17 49  1  6  0  0  0
 18 26  1  0  0  0  0
 18 50  1  1  0  0  0
 19 23  1  0  0  0  0
 19 51  1  0  0  0  0
 19 52  1  0  0  0  0
 20 24  2  0  0  0  0
 20 25  1  0  0  0  0
 21 27  1  0  0  0  0
 21 53  1  0  0  0  0
 21 54  1  0  0  0  0
 22 24  1  0  0  0  0
 22 55  1  0  0  0  0
 22 56  1  0  0  0  0
 23 57  1  0  0  0  0
 23 58  1  0  0  0  0
 24 29  1  0  0  0  0
 25 30  2  0  0  0  0
 26 27  2  0  0  0  0
 27 59  1  0  0  0  0
 28 61  1  0  0  0  0
 28 62  1  0  0  0  0
 28 63  1  0  0  0  0
 29 31  2  0  0  0  0
 29 64  1  0  0  0  0
 30 31  1  0  0  0  0
 31 65  1  0  0  0  0
 32 34  1  0  0  0  0
 33 66  1  0  0  0  0
 33 67  1  0  0  0  0
 33 68  1  0  0  0  0
 34 35  1  0  0  0  0
 34 69  1  0  0  0  0
 35 36  1  0  0  0  0
 35 70  1  0  0  0  0
 37 39  1  0  0  0  0
 38 41  1  0  0  0  0
 39 71  1  0  0  0  0
 39 72  1  0  0  0  0
 39 73  1  0  0  0  0
 40 42  1  0  0  0  0
 40 43  1  0  0  0  0
 40 74  1  0  0  0  0
 41 75  1  0  0  0  0
 41 76  1  0  0  0  0
 41 77  1  0  0  0  0
 42 44  2  0  0  0  0
 42 45  1  0  0  0  0
 44 46  1  0  0  0  0
 44 78  1  0  0  0  0
 45 47  2  0  0  0  0
 45 79  1  0  0  0  0
 46 48  2  0  0  0  0
 46 81  1  0  0  0  0
 47 48  1  0  0  0  0
 47 82  1  0  0  0  0
 48 83  1  0  0  0  0
M  END
> <PUBCHEM_COMPOUND_CID>
122671404

> <PUBCHEM_COMPOUND_CANONICALIZED>
1

> <PUBCHEM_CACTVS_COMPLEXITY>
1340

> <PUBCHEM_CACTVS_HBOND_ACCEPTOR>
14

> <PUBCHEM_CACTVS_HBOND_DONOR>
2

> <PUBCHEM_CACTVS_ROTATABLE_BOND>
14

> <PUBCHEM_CACTVS_SUBSKEYS>
AAADcfB+PAAAAAAAAAAAAAAAAAAAASAAAAA8YMECAAAWAEjBQAAAHgAACAAADnzhmAYyDoMABgCIAiDSCAICCAAgIAAIiAFOiIgPJjaEtR+GeCKl4BGbqAf7+P+PoAABAAAYQADQAAaAADSgAAAAAAAAAA==

> <PUBCHEM_IUPAC_OPENEYE_NAME>
(2S)-2-[(2R,3R)-4-[[(4R,4aS,7aR,12bS)-4a-hydroxy-9-methoxy-3-methyl-1,2,4,5,7a,13-hexahydro-4,12-methanobenzofuro[3,2-e]isoquinolin-7-yl]oxy]-2,3-diacetoxy-4-oxo-butanoyl]oxy-2-phenyl-acetic acid

> <PUBCHEM_IUPAC_CAS_NAME>
(2S)-2-[(2R,3R)-4-[[(4R,4aS,7aR,12bS)-4a-hydroxy-9-methoxy-3-methyl-1,2,4,5,7a,13-hexahydro-4,12-methanobenzofuro[3,2-e]isoquinolin-7-yl]oxy]-2,3-diacetyloxy-1,4-dioxobutoxy]-2-phenylacetic acid

> <PUBCHEM_IUPAC_NAME_MARKUP>
(2<I>S</I>)-2-[(2<I>R</I>,3<I>R</I>)-4-[[(4<I>R</I>,4<I>a</I><I>S</I>,7<I>a</I><I>R</I>,12<I>b</I><I>S</I>)-4<I>a</I>-hydroxy-9-methoxy-3-methyl-1,2,4,5,7<I>a</I>,13-hexahydro-4,12-methanobenzofuro[3,2-e]isoquinolin-7-yl]oxy]-2,3-diacetyloxy-4-oxobutanoyl]oxy-2-phenylacetic acid

> <PUBCHEM_IUPAC_NAME>
(2S)-2-[(2R,3R)-4-[[(4R,4aS,7aR,12bS)-4a-hydroxy-9-methoxy-3-methyl-1,2,4,5,7a,13-hexahydro-4,12-methanobenzofuro[3,2-e]isoquinolin-7-yl]oxy]-2,3-diacetyloxy-4-oxobutanoyl]oxy-2-phenylacetic acid

> <PUBCHEM_IUPAC_SYSTEMATIC_NAME>
(2S)-2-[(2R,3R)-4-[[(4R,4aS,7aR,12bS)-9-methoxy-3-methyl-4a-oxidanyl-1,2,4,5,7a,13-hexahydro-4,12-methanobenzofuro[3,2-e]isoquinolin-7-yl]oxy]-2,3-diacetyloxy-4-oxidanylidene-butanoyl]oxy-2-phenyl-ethanoic acid

> <PUBCHEM_IUPAC_TRADITIONAL_NAME>
(2S)-2-[(2R,3R)-4-[[(4R,4aS,7aR,12bS)-4a-hydroxy-9-methoxy-3-methyl-1,2,4,5,7a,13-hexahydro-4,12-methanobenzofuro[3,2-e]isoquinolin-7-yl]oxy]-2,3-diacetoxy-4-keto-butanoyl]oxy-2-phenyl-acetic acid

> <PUBCHEM_IUPAC_INCHI>
InChI=1S/C34H35NO13/c1-17(36)44-27(28(45-18(2)37)32(41)48-25(30(38)39)19-8-6-5-7-9-19)31(40)46-22-12-13-34(42)23-16-20-10-11-21(43-4)26-24(20)33(34,29(22)47-26)14-15-35(23)3/h5-12,23,25,27-29,42H,13-16H2,1-4H3,(H,38,39)/t23-,25+,27-,28-,29+,33+,34-/m1/s1

> <PUBCHEM_IUPAC_INCHIKEY>
BHZYJYXIDVEEKQ-UOERSSRRSA-N

> <PUBCHEM_XLOGP3_AA>
0.2

> <PUBCHEM_EXACT_MASS>
665.21084017

> <PUBCHEM_MOLECULAR_FORMULA>
C34H35NO13

> <PUBCHEM_MOLECULAR_WEIGHT>
665.6

> <PUBCHEM_OPENEYE_CAN_SMILES>
CC(=O)OC(C(C(=O)OC(C1=CC=CC=C1)C(=O)O)OC(=O)C)C(=O)OC2=CCC3(C4CC5=C6C3(C2OC6=C(C=C5)OC)CCN4C)O

> <PUBCHEM_OPENEYE_ISO_SMILES>
CC(=O)O[C@H]([C@H](C(=O)O[C@@H](C1=CC=CC=C1)C(=O)O)OC(=O)C)C(=O)OC2=CC[C@]3([C@H]4CC5=C6[C@]3([C@H]2OC6=C(C=C5)OC)CCN4C)O

> <PUBCHEM_CACTVS_TPSA>
184

> <PUBCHEM_MONOISOTOPIC_WEIGHT>
665.21084017

> <PUBCHEM_TOTAL_CHARGE>
0

> <PUBCHEM_HEAVY_ATOM_COUNT>
48

> <PUBCHEM_ATOM_DEF_STEREO_COUNT>
7

> <PUBCHEM_ATOM_UDEF_STEREO_COUNT>
0

> <PUBCHEM_BOND_DEF_STEREO_COUNT>
0

> <PUBCHEM_BOND_UDEF_STEREO_COUNT>
0

> <PUBCHEM_ISOTOPIC_ATOM_COUNT>
0

> <PUBCHEM_COMPONENT_COUNT>
1

> <PUBCHEM_CACTVS_TAUTO_COUNT>
-1

> <PUBCHEM_COORDINATE_TYPE>
1
5
255

> <PUBCHEM_BONDANNOTATIONS>
15  19  5
17  49  6
18  50  5
16  2  5
20  24  8
20  25  8
24  29  8
25  30  8
29  31  8
30  31  8
42  44  8
42  45  8
44  46  8
45  47  8
46  48  8
47  48  8
34  6  5
35  7  5
40  8  5

$$$$
