 
  -OEChem-10192104222D

 45 47  0     1  0  0  0  0  0999 V2000
    3.0000    0.5788    0.0000 S   0  0  0  0  0  0  0  0  0  0  0  0
    3.0000   -3.4212    0.0000 S   0  0  0  0  0  0  0  0  0  0  0  0
    4.0000    0.5788    0.0000 O   0  0  0  0  0  0  0  0  0  0  0  0
    2.0000    0.5788    0.0000 O   0  0  0  0  0  0  0  0  0  0  0  0
    2.0000   -3.4212    0.0000 O   0  0  0  0  0  0  0  0  0  0  0  0
    4.0000   -3.4212    0.0000 O   0  0  0  0  0  0  0  0  0  0  0  0
    3.0000    1.5788    0.0000 N   0  0  3  0  0  0  0  0  0  0  0  0
    3.0000   -4.4212    0.0000 N   0  0  0  0  0  0  0  0  0  0  0  0
    4.0878    3.9267    0.0000 C   0  0  0  0  0  0  0  0  0  0  0  0
    3.5000    3.1176    0.0000 C   0  0  3  0  0  0  0  0  0  0  0  0
    5.0013    4.3334    0.0000 C   0  0  0  0  0  0  0  0  0  0  0  0
    4.1923    4.9212    0.0000 C   0  0  0  0  0  0  0  0  0  0  0  0
    2.5000    3.1176    0.0000 C   0  0  0  0  0  0  0  0  0  0  0  0
    3.8090    2.1666    0.0000 C   0  0  0  0  0  0  0  0  0  0  0  0
    2.1910    2.1666    0.0000 C   0  0  0  0  0  0  0  0  0  0  0  0
    3.0000   -0.4212    0.0000 C   0  0  0  0  0  0  0  0  0  0  0  0
    3.8660   -0.9212    0.0000 C   0  0  0  0  0  0  0  0  0  0  0  0
    2.1340   -0.9212    0.0000 C   0  0  0  0  0  0  0  0  0  0  0  0
    3.8660   -1.9212    0.0000 C   0  0  0  0  0  0  0  0  0  0  0  0
    2.1340   -1.9212    0.0000 C   0  0  0  0  0  0  0  0  0  0  0  0
    3.0000   -2.4212    0.0000 C   0  0  0  0  0  0  0  0  0  0  0  0
    2.1340   -4.9212    0.0000 C   0  0  0  0  0  0  0  0  0  0  0  0
    3.8660   -4.9212    0.0000 C   0  0  0  0  0  0  0  0  0  0  0  0
    3.5090    4.1489    0.0000 H   0  0  0  0  0  0  0  0  0  0  0  0
    3.2185    3.6701    0.0000 H   0  0  0  0  0  0  0  0  0  0  0  0
    5.3480    3.8194    0.0000 H   0  0  0  0  0  0  0  0  0  0  0  0
    5.4473    4.7641    0.0000 H   0  0  0  0  0  0  0  0  0  0  0  0
    4.4641    5.4784    0.0000 H   0  0  0  0  0  0  0  0  0  0  0  0
    3.5963    5.0921    0.0000 H   0  0  0  0  0  0  0  0  0  0  0  0
    2.5648    3.7343    0.0000 H   0  0  0  0  0  0  0  0  0  0  0  0
    1.8936    3.2466    0.0000 H   0  0  0  0  0  0  0  0  0  0  0  0
    4.1190    1.6297    0.0000 H   0  0  0  0  0  0  0  0  0  0  0  0
    4.3754    2.4188    0.0000 H   0  0  0  0  0  0  0  0  0  0  0  0
    1.6246    2.4188    0.0000 H   0  0  0  0  0  0  0  0  0  0  0  0
    1.8810    1.6297    0.0000 H   0  0  0  0  0  0  0  0  0  0  0  0
    4.4030   -0.6112    0.0000 H   0  0  0  0  0  0  0  0  0  0  0  0
    1.5970   -0.6112    0.0000 H   0  0  0  0  0  0  0  0  0  0  0  0
    4.4030   -2.2312    0.0000 H   0  0  0  0  0  0  0  0  0  0  0  0
    1.5970   -2.2312    0.0000 H   0  0  0  0  0  0  0  0  0  0  0  0
    1.8240   -4.3842    0.0000 H   0  0  0  0  0  0  0  0  0  0  0  0
    1.5970   -5.2312    0.0000 H   0  0  0  0  0  0  0  0  0  0  0  0
    2.4440   -5.4581    0.0000 H   0  0  0  0  0  0  0  0  0  0  0  0
    3.5560   -5.4581    0.0000 H   0  0  0  0  0  0  0  0  0  0  0  0
    4.4030   -5.2312    0.0000 H   0  0  0  0  0  0  0  0  0  0  0  0
    4.1760   -4.3842    0.0000 H   0  0  0  0  0  0  0  0  0  0  0  0
  1  3  2  0  0  0  0
  1  4  2  0  0  0  0
  1  7  1  0  0  0  0
  1 16  1  0  0  0  0
  2  5  2  0  0  0  0
  2  6  2  0  0  0  0
  2  8  1  0  0  0  0
  2 21  1  0  0  0  0
  7 14  1  0  0  0  0
  7 15  1  0  0  0  0
  8 22  1  0  0  0  0
  8 23  1  0  0  0  0
  9 10  1  0  0  0  0
  9 11  1  0  0  0  0
  9 12  1  0  0  0  0
  9 24  1  0  0  0  0
 10 13  1  0  0  0  0
 10 14  1  0  0  0  0
 10 25  1  0  0  0  0
 11 12  1  0  0  0  0
 11 26  1  0  0  0  0
 11 27  1  0  0  0  0
 12 28  1  0  0  0  0
 12 29  1  0  0  0  0
 13 15  1  0  0  0  0
 13 30  1  0  0  0  0
 13 31  1  0  0  0  0
 14 32  1  0  0  0  0
 14 33  1  0  0  0  0
 15 34  1  0  0  0  0
 15 35  1  0  0  0  0
 16 17  2  0  0  0  0
 16 18  1  0  0  0  0
 17 19  1  0  0  0  0
 17 36  1  0  0  0  0
 18 20  2  0  0  0  0
 18 37  1  0  0  0  0
 19 21  2  0  0  0  0
 19 38  1  0  0  0  0
 20 21  1  0  0  0  0
 20 39  1  0  0  0  0
 22 40  1  0  0  0  0
 22 41  1  0  0  0  0
 22 42  1  0  0  0  0
 23 43  1  0  0  0  0
 23 44  1  0  0  0  0
 23 45  1  0  0  0  0
M  END
> <PUBCHEM_COMPOUND_CID>
127689687

> <PUBCHEM_COMPOUND_CANONICALIZED>
1

> <PUBCHEM_CACTVS_COMPLEXITY>
621

> <PUBCHEM_CACTVS_HBOND_ACCEPTOR>
6

> <PUBCHEM_CACTVS_HBOND_DONOR>
0

> <PUBCHEM_CACTVS_ROTATABLE_BOND>
5

> <PUBCHEM_CACTVS_SUBSKEYS>
AAADceBzOABgAAAAAAAAAAAAGAAAAWAAAAAwAAAAAAAAAAABAAAAHAQAQAAADQDBUAQyAYIAAAKAACBCAHBCABAgAAAIiBgIAIgIICKAkRCEIAAggACIiAcQAAAOgAgAAAAAAAAAEAAAAAAAAAAAAAAAAA==

> <PUBCHEM_IUPAC_OPENEYE_NAME>
4-(3-cyclopropylpyrrolidin-1-yl)sulfonyl-N,N-dimethyl-benzenesulfonamide

> <PUBCHEM_IUPAC_CAS_NAME>
4-[(3-cyclopropyl-1-pyrrolidinyl)sulfonyl]-N,N-dimethylbenzenesulfonamide

> <PUBCHEM_IUPAC_NAME_MARKUP>
4-(3-cyclopropylpyrrolidin-1-yl)sulfonyl-<I>N</I>,<I>N</I>-dimethylbenzenesulfonamide

> <PUBCHEM_IUPAC_NAME>
4-(3-cyclopropylpyrrolidin-1-yl)sulfonyl-N,N-dimethylbenzenesulfonamide

> <PUBCHEM_IUPAC_SYSTEMATIC_NAME>
4-(3-cyclopropylpyrrolidin-1-yl)sulfonyl-N,N-dimethyl-benzenesulfonamide

> <PUBCHEM_IUPAC_TRADITIONAL_NAME>
4-(3-cyclopropylpyrrolidino)sulfonyl-N,N-dimethyl-benzenesulfonamide

> <PUBCHEM_IUPAC_INCHI>
InChI=1S/C15H22N2O4S2/c1-16(2)22(18,19)14-5-7-15(8-6-14)23(20,21)17-10-9-13(11-17)12-3-4-12/h5-8,12-13H,3-4,9-11H2,1-2H3

> <PUBCHEM_IUPAC_INCHIKEY>
LOKCIGWQFBBGPA-UHFFFAOYSA-N

> <PUBCHEM_XLOGP3_AA>
1.7

> <PUBCHEM_EXACT_MASS>
358.10209953

> <PUBCHEM_MOLECULAR_FORMULA>
C15H22N2O4S2

> <PUBCHEM_MOLECULAR_WEIGHT>
358.5

> <PUBCHEM_OPENEYE_CAN_SMILES>
CN(C)S(=O)(=O)C1=CC=C(C=C1)S(=O)(=O)N2CCC(C2)C3CC3

> <PUBCHEM_OPENEYE_ISO_SMILES>
CN(C)S(=O)(=O)C1=CC=C(C=C1)S(=O)(=O)N2CCC(C2)C3CC3

> <PUBCHEM_CACTVS_TPSA>
91.5

> <PUBCHEM_MONOISOTOPIC_WEIGHT>
358.10209953

> <PUBCHEM_TOTAL_CHARGE>
0

> <PUBCHEM_HEAVY_ATOM_COUNT>
23

> <PUBCHEM_ATOM_DEF_STEREO_COUNT>
0

> <PUBCHEM_ATOM_UDEF_STEREO_COUNT>
1

> <PUBCHEM_BOND_DEF_STEREO_COUNT>
0

> <PUBCHEM_BOND_UDEF_STEREO_COUNT>
0

> <PUBCHEM_ISOTOPIC_ATOM_COUNT>
0

> <PUBCHEM_COMPONENT_COUNT>
1

> <PUBCHEM_CACTVS_TAUTO_COUNT>
-1

> <PUBCHEM_COORDINATE_TYPE>
1
5
255

> <PUBCHEM_BONDANNOTATIONS>
16  17  8
16  18  8
17  19  8
18  20  8
19  21  8
20  21  8
10  9  3

$$$$
