 
  -OEChem-10192104042D

 93 97  0     1  0  0  0  0  0999 V2000
    9.2112   -0.0763    0.0000 O   0  0  0  0  0  0  0  0  0  0  0  0
    6.9899    1.2509    0.0000 O   0  0  0  0  0  0  0  0  0  0  0  0
    8.9374    2.9722    0.0000 O   0  0  0  0  0  0  0  0  0  0  0  0
   13.6459    4.4182    0.0000 O   0  0  0  0  0  0  0  0  0  0  0  0
   12.7799    2.9182    0.0000 O   0  0  0  0  0  0  0  0  0  0  0  0
    5.1350   -3.9182    0.0000 O   0  0  0  0  0  0  0  0  0  0  0  0
    6.8671   -3.9182    0.0000 O   0  0  0  0  0  0  0  0  0  0  0  0
   12.7799    0.9182    0.0000 O   0  0  0  0  0  0  0  0  0  0  0  0
   11.0478    3.9182    0.0000 O   0  0  0  0  0  0  0  0  0  0  0  0
   11.0478    5.9182    0.0000 O   0  0  0  0  0  0  0  0  0  0  0  0
   12.7799    6.9182    0.0000 O   0  0  0  0  0  0  0  0  0  0  0  0
    5.1350   -6.9182    0.0000 O   0  0  0  0  0  0  0  0  0  0  0  0
    6.8671   -5.9182    0.0000 O   0  0  0  0  0  0  0  0  0  0  0  0
    3.4030   -5.9182    0.0000 O   0  0  0  0  0  0  0  0  0  0  0  0
    8.5991   -2.9182    0.0000 O   0  0  0  0  0  0  0  0  0  0  0  0
   15.3779    5.4182    0.0000 O   0  0  0  0  0  0  0  0  0  0  0  0
    2.5369   -4.4182    0.0000 O   0  0  0  0  0  0  0  0  0  0  0  0
    7.7331    0.5818    0.0000 C   0  0  3  0  0  0  0  0  0  0  0  0
    8.4022    1.3249    0.0000 C   0  0  3  0  0  0  0  0  0  0  0  0
    9.3158    0.9182    0.0000 C   0  0  3  0  0  0  0  0  0  0  0  0
    8.2331   -0.2842    0.0000 C   0  0  0  0  0  0  0  0  0  0  0  0
    6.8671    0.0818    0.0000 C   0  0  0  0  0  0  0  0  0  0  0  0
    8.1943    2.3031    0.0000 C   0  0  0  0  0  0  0  0  0  0  0  0
   10.1818    1.4182    0.0000 C   0  0  0  0  0  0  0  0  0  0  0  0
    6.8671   -0.9182    0.0000 C   0  0  0  0  0  0  0  0  0  0  0  0
   11.0478    0.9182    0.0000 C   0  0  0  0  0  0  0  0  0  0  0  0
   10.1818    2.4182    0.0000 C   0  0  0  0  0  0  0  0  0  0  0  0
    7.7331   -1.4182    0.0000 C   0  0  0  0  0  0  0  0  0  0  0  0
    6.0010   -1.4182    0.0000 C   0  0  0  0  0  0  0  0  0  0  0  0
   11.9138    4.4182    0.0000 C   0  0  2  0  0  0  0  0  0  0  0  0
   11.9138    5.4182    0.0000 C   0  0  2  0  0  0  0  0  0  0  0  0
   12.7799    3.9182    0.0000 C   0  0  1  0  0  0  0  0  0  0  0  0
   12.7799    5.9182    0.0000 C   0  0  1  0  0  0  0  0  0  0  0  0
   11.9138    1.4182    0.0000 C   0  0  0  0  0  0  0  0  0  0  0  0
    5.1350   -5.9182    0.0000 C   0  0  2  0  0  0  0  0  0  0  0  0
    6.0010   -5.4182    0.0000 C   0  0  2  0  0  0  0  0  0  0  0  0
   13.6459    5.4182    0.0000 C   0  0  1  0  0  0  0  0  0  0  0  0
    4.2690   -5.4182    0.0000 C   0  0  1  0  0  0  0  0  0  0  0  0
   11.0478    2.9182    0.0000 C   0  0  0  0  0  0  0  0  0  0  0  0
   11.9138    2.4182    0.0000 C   0  0  0  0  0  0  0  0  0  0  0  0
    6.0010   -4.4182    0.0000 C   0  0  1  0  0  0  0  0  0  0  0  0
    4.2690   -4.4182    0.0000 C   0  0  1  0  0  0  0  0  0  0  0  0
    7.7331   -2.4182    0.0000 C   0  0  0  0  0  0  0  0  0  0  0  0
    6.8671   -2.9182    0.0000 C   0  0  0  0  0  0  0  0  0  0  0  0
    6.0010   -2.4182    0.0000 C   0  0  0  0  0  0  0  0  0  0  0  0
   14.5119    5.9182    0.0000 C   0  0  0  0  0  0  0  0  0  0  0  0
    3.4030   -3.9182    0.0000 C   0  0  0  0  0  0  0  0  0  0  0  0
   12.7799   -0.0818    0.0000 C   0  0  0  0  0  0  0  0  0  0  0  0
    9.4651   -2.4182    0.0000 C   0  0  0  0  0  0  0  0  0  0  0  0
    7.8033    1.4854    0.0000 H   0  0  0  0  0  0  0  0  0  0  0  0
    9.8357    0.5805    0.0000 H   0  0  0  0  0  0  0  0  0  0  0  0
    7.6667   -0.5364    0.0000 H   0  0  0  0  0  0  0  0  0  0  0  0
    8.4247   -0.8739    0.0000 H   0  0  0  0  0  0  0  0  0  0  0  0
    6.6550    0.6644    0.0000 H   0  0  0  0  0  0  0  0  0  0  0  0
    6.2565   -0.0259    0.0000 H   0  0  0  0  0  0  0  0  0  0  0  0
    7.8658    2.8289    0.0000 H   0  0  0  0  0  0  0  0  0  0  0  0
    7.6194    2.0708    0.0000 H   0  0  0  0  0  0  0  0  0  0  0  0
    6.4003    1.0593    0.0000 H   0  0  0  0  0  0  0  0  0  0  0  0
   11.0478    0.2982    0.0000 H   0  0  0  0  0  0  0  0  0  0  0  0
    9.6448    2.7282    0.0000 H   0  0  0  0  0  0  0  0  0  0  0  0
    8.8086    3.5787    0.0000 H   0  0  0  0  0  0  0  0  0  0  0  0
    8.2700   -1.1082    0.0000 H   0  0  0  0  0  0  0  0  0  0  0  0
    5.4641   -1.1082    0.0000 H   0  0  0  0  0  0  0  0  0  0  0  0
   11.3769    4.7282    0.0000 H   0  0  0  0  0  0  0  0  0  0  0  0
   11.9138    6.0382    0.0000 H   0  0  0  0  0  0  0  0  0  0  0  0
   12.2429    3.6082    0.0000 H   0  0  0  0  0  0  0  0  0  0  0  0
   13.3168    6.2282    0.0000 H   0  0  0  0  0  0  0  0  0  0  0  0
    4.5981   -6.2282    0.0000 H   0  0  0  0  0  0  0  0  0  0  0  0
    6.0010   -6.0382    0.0000 H   0  0  0  0  0  0  0  0  0  0  0  0
   14.1828    5.1082    0.0000 H   0  0  0  0  0  0  0  0  0  0  0  0
    4.2690   -6.0382    0.0000 H   0  0  0  0  0  0  0  0  0  0  0  0
    6.5380   -4.7282    0.0000 H   0  0  0  0  0  0  0  0  0  0  0  0
   11.0478    3.5382    0.0000 H   0  0  0  0  0  0  0  0  0  0  0  0
    4.2690   -3.7982    0.0000 H   0  0  0  0  0  0  0  0  0  0  0  0
    5.4641   -2.7282    0.0000 H   0  0  0  0  0  0  0  0  0  0  0  0
   14.9104    6.3932    0.0000 H   0  0  0  0  0  0  0  0  0  0  0  0
   14.1134    6.3932    0.0000 H   0  0  0  0  0  0  0  0  0  0  0  0
    3.8015   -3.4433    0.0000 H   0  0  0  0  0  0  0  0  0  0  0  0
    3.0044   -3.4433    0.0000 H   0  0  0  0  0  0  0  0  0  0  0  0
   10.5109    4.2282    0.0000 H   0  0  0  0  0  0  0  0  0  0  0  0
   11.0478    6.5382    0.0000 H   0  0  0  0  0  0  0  0  0  0  0  0
   13.3168    7.2282    0.0000 H   0  0  0  0  0  0  0  0  0  0  0  0
    5.6720   -7.2282    0.0000 H   0  0  0  0  0  0  0  0  0  0  0  0
    7.4040   -5.6082    0.0000 H   0  0  0  0  0  0  0  0  0  0  0  0
    3.4030   -6.5382    0.0000 H   0  0  0  0  0  0  0  0  0  0  0  0
   12.1599   -0.0818    0.0000 H   0  0  0  0  0  0  0  0  0  0  0  0
   12.7799   -0.7018    0.0000 H   0  0  0  0  0  0  0  0  0  0  0  0
   13.3999   -0.0818    0.0000 H   0  0  0  0  0  0  0  0  0  0  0  0
   15.9149    5.7282    0.0000 H   0  0  0  0  0  0  0  0  0  0  0  0
    2.0000   -4.1082    0.0000 H   0  0  0  0  0  0  0  0  0  0  0  0
    9.7751   -2.9551    0.0000 H   0  0  0  0  0  0  0  0  0  0  0  0
   10.0021   -2.1082    0.0000 H   0  0  0  0  0  0  0  0  0  0  0  0
    9.1551   -1.8813    0.0000 H   0  0  0  0  0  0  0  0  0  0  0  0
  1 20  1  0  0  0  0
  1 21  1  0  0  0  0
  2 18  1  0  0  0  0
  2 58  1  0  0  0  0
  3 23  1  0  0  0  0
  3 61  1  0  0  0  0
  4 32  1  0  0  0  0
  4 37  1  0  0  0  0
 32  5  1  1  0  0  0
  5 40  1  0  0  0  0
  6 41  1  0  0  0  0
  6 42  1  0  0  0  0
 41  7  1  1  0  0  0
  7 44  1  0  0  0  0
  8 34  1  0  0  0  0
  8 48  1  0  0  0  0
 30  9  1  6  0  0  0
  9 80  1  0  0  0  0
 31 10  1  1  0  0  0
 10 81  1  0  0  0  0
 33 11  1  6  0  0  0
 11 82  1  0  0  0  0
 35 12  1  1  0  0  0
 12 83  1  0  0  0  0
 36 13  1  6  0  0  0
 13 84  1  0  0  0  0
 38 14  1  6  0  0  0
 14 85  1  0  0  0  0
 15 43  1  0  0  0  0
 15 49  1  0  0  0  0
 16 46  1  0  0  0  0
 16 89  1  0  0  0  0
 17 47  1  0  0  0  0
 17 90  1  0  0  0  0
 18 19  1  0  0  0  0
 18 21  1  0  0  0  0
 18 22  1  0  0  0  0
 19 20  1  0  0  0  0
 19 23  1  0  0  0  0
 19 50  1  0  0  0  0
 20 24  1  0  0  0  0
 20 51  1  0  0  0  0
 21 52  1  0  0  0  0
 21 53  1  0  0  0  0
 22 25  1  0  0  0  0
 22 54  1  0  0  0  0
 22 55  1  0  0  0  0
 23 56  1  0  0  0  0
 23 57  1  0  0  0  0
 24 26  2  0  0  0  0
 24 27  1  0  0  0  0
 25 28  2  0  0  0  0
 25 29  1  0  0  0  0
 26 34  1  0  0  0  0
 26 59  1  0  0  0  0
 27 39  2  0  0  0  0
 27 60  1  0  0  0  0
 28 43  1  0  0  0  0
 28 62  1  0  0  0  0
 29 45  2  0  0  0  0
 29 63  1  0  0  0  0
 30 31  1  0  0  0  0
 30 32  1  0  0  0  0
 30 64  1  0  0  0  0
 31 33  1  0  0  0  0
 31 65  1  0  0  0  0
 32 66  1  0  0  0  0
 33 37  1  0  0  0  0
 33 67  1  0  0  0  0
 34 40  2  0  0  0  0
 35 36  1  0  0  0  0
 35 38  1  0  0  0  0
 35 68  1  0  0  0  0
 36 41  1  0  0  0  0
 36 69  1  0  0  0  0
 37 46  1  1  0  0  0
 37 70  1  0  0  0  0
 38 42  1  0  0  0  0
 38 71  1  0  0  0  0
 39 40  1  0  0  0  0
 39 73  1  0  0  0  0
 41 72  1  0  0  0  0
 42 47  1  1  0  0  0
 42 74  1  0  0  0  0
 43 44  2  0  0  0  0
 44 45  1  0  0  0  0
 45 75  1  0  0  0  0
 46 76  1  0  0  0  0
 46 77  1  0  0  0  0
 47 78  1  0  0  0  0
 47 79  1  0  0  0  0
 48 86  1  0  0  0  0
 48 87  1  0  0  0  0
 48 88  1  0  0  0  0
 49 91  1  0  0  0  0
 49 92  1  0  0  0  0
 49 93  1  0  0  0  0
M  END
> <PUBCHEM_COMPOUND_CID>
6325759

> <PUBCHEM_COMPOUND_CANONICALIZED>
1

> <PUBCHEM_CACTVS_COMPLEXITY>
1030

> <PUBCHEM_CACTVS_HBOND_ACCEPTOR>
17

> <PUBCHEM_CACTVS_HBOND_DONOR>
10

> <PUBCHEM_CACTVS_ROTATABLE_BOND>
12

> <PUBCHEM_CACTVS_SUBSKEYS>
AAADcfB8PgAAAAAAAAAAAAAAAAAAASAAAAA0aIEAAAAAAAABQAAAGgAACAAADVSwmAMyDoAABgCAAiBCAAACCAAgIAAIiAAGiIgdNiKEMRqieCKlwBEPqAfA4PwOoAABAAAAQABAAAIAAACAAAAAAAAAAA==

> <PUBCHEM_IUPAC_OPENEYE_NAME>
(2S,3R,4S,5S,6R)-2-[4-[[3-hydroxy-4-(hydroxymethyl)-5-[3-methoxy-4-[(2S,3R,4S,5S,6R)-3,4,5-trihydroxy-6-(hydroxymethyl)tetrahydropyran-2-yl]oxy-phenyl]tetrahydrofuran-3-yl]methyl]-2-methoxy-phenoxy]-6-(hydroxymethyl)tetrahydropyran-3,4,5-triol

> <PUBCHEM_IUPAC_CAS_NAME>
(2S,3R,4S,5S,6R)-2-[4-[[3-hydroxy-4-(hydroxymethyl)-5-[3-methoxy-4-[[(2S,3R,4S,5S,6R)-3,4,5-trihydroxy-6-(hydroxymethyl)-2-oxanyl]oxy]phenyl]-3-oxolanyl]methyl]-2-methoxyphenoxy]-6-(hydroxymethyl)oxane-3,4,5-triol

> <PUBCHEM_IUPAC_NAME_MARKUP>
(2<I>S</I>,3<I>R</I>,4<I>S</I>,5<I>S</I>,6<I>R</I>)-2-[4-[[3-hydroxy-4-(hydroxymethyl)-5-[3-methoxy-4-[(2<I>S</I>,3<I>R</I>,4<I>S</I>,5<I>S</I>,6<I>R</I>)-3,4,5-trihydroxy-6-(hydroxymethyl)oxan-2-yl]oxyphenyl]oxolan-3-yl]methyl]-2-methoxyphenoxy]-6-(hydroxymethyl)oxane-3,4,5-triol

> <PUBCHEM_IUPAC_NAME>
(2S,3R,4S,5S,6R)-2-[4-[[3-hydroxy-4-(hydroxymethyl)-5-[3-methoxy-4-[(2S,3R,4S,5S,6R)-3,4,5-trihydroxy-6-(hydroxymethyl)oxan-2-yl]oxyphenyl]oxolan-3-yl]methyl]-2-methoxyphenoxy]-6-(hydroxymethyl)oxane-3,4,5-triol

> <PUBCHEM_IUPAC_SYSTEMATIC_NAME>
(2R,3S,4S,5R,6S)-2-(hydroxymethyl)-6-[4-[[4-(hydroxymethyl)-5-[4-[(2S,3R,4S,5S,6R)-6-(hydroxymethyl)-3,4,5-tris(oxidanyl)oxan-2-yl]oxy-3-methoxy-phenyl]-3-oxidanyl-oxolan-3-yl]methyl]-2-methoxy-phenoxy]oxane-3,4,5-triol

> <PUBCHEM_IUPAC_TRADITIONAL_NAME>
(2S,3R,4S,5S,6R)-2-[4-[[3-hydroxy-5-[3-methoxy-4-[(2S,3R,4S,5S,6R)-3,4,5-trihydroxy-6-methylol-tetrahydropyran-2-yl]oxy-phenyl]-4-methylol-tetrahydrofuran-3-yl]methyl]-2-methoxy-phenoxy]-6-methylol-tetrahydropyran-3,4,5-triol

> <PUBCHEM_IUPAC_INCHI>
InChI=1S/C32H44O17/c1-43-19-7-14(3-5-17(19)46-30-27(40)25(38)23(36)21(11-34)48-30)9-32(42)13-45-29(16(32)10-33)15-4-6-18(20(8-15)44-2)47-31-28(41)26(39)24(37)22(12-35)49-31/h3-8,16,21-31,33-42H,9-13H2,1-2H3/t16?,21-,22-,23-,24-,25+,26+,27-,28-,29?,30-,31-,32?/m1/s1

> <PUBCHEM_IUPAC_INCHIKEY>
ZOHABIUWJOPCKZ-BJGXXINSSA-N

> <PUBCHEM_XLOGP3_AA>
-1.7

> <PUBCHEM_EXACT_MASS>
700.25784993

> <PUBCHEM_MOLECULAR_FORMULA>
C32H44O17

> <PUBCHEM_MOLECULAR_WEIGHT>
700.7

> <PUBCHEM_OPENEYE_CAN_SMILES>
COC1=C(C=CC(=C1)CC2(COC(C2CO)C3=CC(=C(C=C3)OC4C(C(C(C(O4)CO)O)O)O)OC)O)OC5C(C(C(C(O5)CO)O)O)O

> <PUBCHEM_OPENEYE_ISO_SMILES>
COC1=C(C=CC(=C1)CC2(COC(C2CO)C3=CC(=C(C=C3)O[C@H]4[C@@H]([C@H]([C@@H]([C@H](O4)CO)O)O)O)OC)O)O[C@H]5[C@@H]([C@H]([C@@H]([C@H](O5)CO)O)O)O

> <PUBCHEM_CACTVS_TPSA>
267

> <PUBCHEM_MONOISOTOPIC_WEIGHT>
700.25784993

> <PUBCHEM_TOTAL_CHARGE>
0

> <PUBCHEM_HEAVY_ATOM_COUNT>
49

> <PUBCHEM_ATOM_DEF_STEREO_COUNT>
10

> <PUBCHEM_ATOM_UDEF_STEREO_COUNT>
3

> <PUBCHEM_BOND_DEF_STEREO_COUNT>
0

> <PUBCHEM_BOND_UDEF_STEREO_COUNT>
0

> <PUBCHEM_ISOTOPIC_ATOM_COUNT>
0

> <PUBCHEM_COMPONENT_COUNT>
1

> <PUBCHEM_CACTVS_TAUTO_COUNT>
-1

> <PUBCHEM_COORDINATE_TYPE>
1
5
255

> <PUBCHEM_BONDANNOTATIONS>
31  10  5
33  11  6
35  12  5
36  13  6
38  14  6
19  23  3
18  2  3
20  24  3
24  26  8
24  27  8
25  28  8
25  29  8
26  34  8
27  39  8
28  43  8
29  45  8
34  40  8
37  46  5
39  40  8
42  47  5
43  44  8
44  45  8
32  5  5
41  7  5
30  9  6

$$$$
