 
  -OEChem-10192104122D

 64 66  0     1  0  0  0  0  0999 V2000
    6.0981    2.5205    0.0000 O   0  0  0  0  0  0  0  0  0  0  0  0
    2.5000    4.0205    0.0000 O   0  0  0  0  0  0  0  0  0  0  0  0
    6.0981    4.5205    0.0000 O   0  0  0  0  0  0  0  0  0  0  0  0
    4.3660    1.5205    0.0000 O   0  0  0  0  0  0  0  0  0  0  0  0
    6.9641   -2.9795    0.0000 O   0  0  0  0  0  0  0  0  0  0  0  0
    8.6962   -2.9795    0.0000 O   0  0  0  0  0  0  0  0  0  0  0  0
    5.2320   -4.9795    0.0000 O   0  0  0  0  0  0  0  0  0  0  0  0
    6.9641   -5.9795    0.0000 O   0  0  0  0  0  0  0  0  0  0  0  0
    8.6962   -4.9795    0.0000 O   0  0  0  0  0  0  0  0  0  0  0  0
    3.5000    5.7526    0.0000 O   0  0  0  0  0  0  0  0  0  0  0  0
    2.0000    4.8865    0.0000 O   0  0  0  0  0  0  0  0  0  0  0  0
    4.3660   -3.4795    0.0000 O   0  0  0  0  0  0  0  0  0  0  0  0
    5.2320    1.0205    0.0000 O   0  0  0  0  0  0  0  0  0  0  0  0
   10.4282   -1.9795    0.0000 O   0  0  0  0  0  0  0  0  0  0  0  0
    3.5000    4.0205    0.0000 C   0  0  0  0  0  0  0  0  0  0  0  0
    5.2320    3.0205    0.0000 C   0  0  0  0  0  0  0  0  0  0  0  0
    4.3660    4.5205    0.0000 C   0  0  0  0  0  0  0  0  0  0  0  0
    3.5000    3.0205    0.0000 C   0  0  0  0  0  0  0  0  0  0  0  0
    5.2320    4.0205    0.0000 C   0  0  1  0  0  0  0  0  0  0  0  0
    4.3660    2.5205    0.0000 C   0  0  1  0  0  0  0  0  0  0  0  0
    6.0981   -4.4795    0.0000 C   0  0  1  0  0  0  0  0  0  0  0  0
    6.9641   -4.9795    0.0000 C   0  0  1  0  0  0  0  0  0  0  0  0
    6.0981   -3.4795    0.0000 C   0  0  1  0  0  0  0  0  0  0  0  0
    7.8301   -4.4795    0.0000 C   0  0  2  0  0  0  0  0  0  0  0  0
    3.0000    4.8865    0.0000 C   0  0  0  0  0  0  0  0  0  0  0  0
    7.8301   -3.4795    0.0000 C   0  0  2  0  0  0  0  0  0  0  0  0
    5.2320   -2.9795    0.0000 C   0  0  0  0  0  0  0  0  0  0  0  0
    6.0981    1.5205    0.0000 C   0  0  0  0  0  0  0  0  0  0  0  0
    8.6962   -1.9795    0.0000 C   0  0  0  0  0  0  0  0  0  0  0  0
    6.9641    1.0205    0.0000 C   0  0  0  0  0  0  0  0  0  0  0  0
    7.8301   -1.4795    0.0000 C   0  0  0  0  0  0  0  0  0  0  0  0
    7.8301   -0.4795    0.0000 C   0  0  0  0  0  0  0  0  0  0  0  0
    9.5622   -1.4795    0.0000 C   0  0  0  0  0  0  0  0  0  0  0  0
    6.9641    0.0205    0.0000 C   0  0  0  0  0  0  0  0  0  0  0  0
    8.6962    0.0205    0.0000 C   0  0  0  0  0  0  0  0  0  0  0  0
    9.5622   -0.4795    0.0000 C   0  0  0  0  0  0  0  0  0  0  0  0
    5.2320    2.4005    0.0000 H   0  0  0  0  0  0  0  0  0  0  0  0
    4.7646    4.9954    0.0000 H   0  0  0  0  0  0  0  0  0  0  0  0
    3.9675    4.9954    0.0000 H   0  0  0  0  0  0  0  0  0  0  0  0
    2.8894    3.1282    0.0000 H   0  0  0  0  0  0  0  0  0  0  0  0
    3.2880    2.4379    0.0000 H   0  0  0  0  0  0  0  0  0  0  0  0
    5.2320    4.6405    0.0000 H   0  0  0  0  0  0  0  0  0  0  0  0
    3.8291    2.2105    0.0000 H   0  0  0  0  0  0  0  0  0  0  0  0
    6.0981   -5.0995    0.0000 H   0  0  0  0  0  0  0  0  0  0  0  0
    6.4272   -5.2895    0.0000 H   0  0  0  0  0  0  0  0  0  0  0  0
    6.0981   -2.8595    0.0000 H   0  0  0  0  0  0  0  0  0  0  0  0
    7.8301   -5.0995    0.0000 H   0  0  0  0  0  0  0  0  0  0  0  0
    7.8301   -2.8595    0.0000 H   0  0  0  0  0  0  0  0  0  0  0  0
    2.1900    3.4836    0.0000 H   0  0  0  0  0  0  0  0  0  0  0  0
    6.0981    5.1405    0.0000 H   0  0  0  0  0  0  0  0  0  0  0  0
    3.8291    1.2105    0.0000 H   0  0  0  0  0  0  0  0  0  0  0  0
    5.6306   -2.5046    0.0000 H   0  0  0  0  0  0  0  0  0  0  0  0
    4.8335   -2.5046    0.0000 H   0  0  0  0  0  0  0  0  0  0  0  0
    5.2320   -5.5995    0.0000 H   0  0  0  0  0  0  0  0  0  0  0  0
    7.5010   -6.2895    0.0000 H   0  0  0  0  0  0  0  0  0  0  0  0
    9.2331   -4.6695    0.0000 H   0  0  0  0  0  0  0  0  0  0  0  0
    3.1900    6.2895    0.0000 H   0  0  0  0  0  0  0  0  0  0  0  0
    7.5010    1.3305    0.0000 H   0  0  0  0  0  0  0  0  0  0  0  0
    3.8291   -3.1695    0.0000 H   0  0  0  0  0  0  0  0  0  0  0  0
    7.2932   -1.7895    0.0000 H   0  0  0  0  0  0  0  0  0  0  0  0
    6.4272   -0.2895    0.0000 H   0  0  0  0  0  0  0  0  0  0  0  0
    8.6962    0.6405    0.0000 H   0  0  0  0  0  0  0  0  0  0  0  0
   10.0991   -0.1695    0.0000 H   0  0  0  0  0  0  0  0  0  0  0  0
   10.9651   -1.6695    0.0000 H   0  0  0  0  0  0  0  0  0  0  0  0
  1 16  1  0  0  0  0
  1 28  1  0  0  0  0
  2 15  1  0  0  0  0
  2 49  1  0  0  0  0
 19  3  1  1  0  0  0
  3 50  1  0  0  0  0
 20  4  1  6  0  0  0
  4 51  1  0  0  0  0
  5 23  1  0  0  0  0
  5 26  1  0  0  0  0
 26  6  1  6  0  0  0
  6 29  1  0  0  0  0
 21  7  1  6  0  0  0
  7 54  1  0  0  0  0
 22  8  1  1  0  0  0
  8 55  1  0  0  0  0
 24  9  1  6  0  0  0
  9 56  1  0  0  0  0
 10 25  1  0  0  0  0
 10 57  1  0  0  0  0
 11 25  2  0  0  0  0
 12 27  1  0  0  0  0
 12 59  1  0  0  0  0
 13 28  2  0  0  0  0
 14 33  1  0  0  0  0
 14 64  1  0  0  0  0
 15 17  1  0  0  0  0
 15 18  1  0  0  0  0
 15 25  1  0  0  0  0
 16 19  1  0  0  0  0
 16 20  1  0  0  0  0
 16 37  1  0  0  0  0
 17 19  1  0  0  0  0
 17 38  1  0  0  0  0
 17 39  1  0  0  0  0
 18 20  1  0  0  0  0
 18 40  1  0  0  0  0
 18 41  1  0  0  0  0
 19 42  1  0  0  0  0
 20 43  1  0  0  0  0
 21 22  1  0  0  0  0
 21 23  1  0  0  0  0
 21 44  1  0  0  0  0
 22 24  1  0  0  0  0
 22 45  1  0  0  0  0
 23 27  1  1  0  0  0
 23 46  1  0  0  0  0
 24 26  1  0  0  0  0
 24 47  1  0  0  0  0
 26 48  1  0  0  0  0
 27 52  1  0  0  0  0
 27 53  1  0  0  0  0
 28 30  1  0  0  0  0
 29 31  1  0  0  0  0
 29 33  2  0  0  0  0
 30 34  2  0  0  0  0
 30 58  1  0  0  0  0
 31 32  2  0  0  0  0
 31 60  1  0  0  0  0
 32 34  1  0  0  0  0
 32 35  1  0  0  0  0
 33 36  1  0  0  0  0
 34 61  1  0  0  0  0
 35 36  2  0  0  0  0
 35 62  1  0  0  0  0
 36 63  1  0  0  0  0
M  END
> <PUBCHEM_COMPOUND_CID>
90479638

> <PUBCHEM_COMPOUND_CANONICALIZED>
1

> <PUBCHEM_CACTVS_COMPLEXITY>
792

> <PUBCHEM_CACTVS_HBOND_ACCEPTOR>
14

> <PUBCHEM_CACTVS_HBOND_DONOR>
9

> <PUBCHEM_CACTVS_ROTATABLE_BOND>
8

> <PUBCHEM_CACTVS_SUBSKEYS>
AAADceB4PAAAAAAAAAAAAAAAAAAAAAAAAAA0YIAAAAAAAAABAAAAGgAACAAADFSwmAMwDoAABgCIAiDSCAICCAAgIAAIiAFGiMgdNjKGMRqieCOlwBEPuYfK7DzOIAABAAAAQABCAAIQAACAAAAAAAAAAA==

> <PUBCHEM_IUPAC_OPENEYE_NAME>
(3R,5R)-1,3,5-trihydroxy-4-[(E)-3-[4-hydroxy-3-[(2R,3R,4S,5S,6R)-3,4,5-trihydroxy-6-(hydroxymethyl)tetrahydropyran-2-yl]oxy-phenyl]prop-2-enoyl]oxy-cyclohexanecarboxylic acid

> <PUBCHEM_IUPAC_CAS_NAME>
(3R,5R)-1,3,5-trihydroxy-4-[(E)-3-[4-hydroxy-3-[[(2R,3R,4S,5S,6R)-3,4,5-trihydroxy-6-(hydroxymethyl)-2-oxanyl]oxy]phenyl]-1-oxoprop-2-enoxy]-1-cyclohexanecarboxylic acid

> <PUBCHEM_IUPAC_NAME_MARKUP>
(3<I>R</I>,5<I>R</I>)-1,3,5-trihydroxy-4-[(<I>E</I>)-3-[4-hydroxy-3-[(2<I>R</I>,3<I>R</I>,4<I>S</I>,5<I>S</I>,6<I>R</I>)-3,4,5-trihydroxy-6-(hydroxymethyl)oxan-2-yl]oxyphenyl]prop-2-enoyl]oxycyclohexane-1-carboxylic acid

> <PUBCHEM_IUPAC_NAME>
(3R,5R)-1,3,5-trihydroxy-4-[(E)-3-[4-hydroxy-3-[(2R,3R,4S,5S,6R)-3,4,5-trihydroxy-6-(hydroxymethyl)oxan-2-yl]oxyphenyl]prop-2-enoyl]oxycyclohexane-1-carboxylic acid

> <PUBCHEM_IUPAC_SYSTEMATIC_NAME>
(3R,5R)-4-[(E)-3-[3-[(2R,3R,4S,5S,6R)-6-(hydroxymethyl)-3,4,5-tris(oxidanyl)oxan-2-yl]oxy-4-oxidanyl-phenyl]prop-2-enoyl]oxy-1,3,5-tris(oxidanyl)cyclohexane-1-carboxylic acid

> <PUBCHEM_IUPAC_TRADITIONAL_NAME>
(3R,5R)-1,3,5-trihydroxy-4-[(E)-3-[4-hydroxy-3-[(2R,3R,4S,5S,6R)-3,4,5-trihydroxy-6-methylol-tetrahydropyran-2-yl]oxy-phenyl]acryloyl]oxy-cyclohexanecarboxylic acid

> <PUBCHEM_IUPAC_INCHI>
InChI=1S/C22H28O14/c23-8-14-16(28)17(29)18(30)20(35-14)34-13-5-9(1-3-10(13)24)2-4-15(27)36-19-11(25)6-22(33,21(31)32)7-12(19)26/h1-5,11-12,14,16-20,23-26,28-30,33H,6-8H2,(H,31,32)/b4-2+/t11-,12-,14-,16-,17+,18-,19?,20+,22?/m1/s1

> <PUBCHEM_IUPAC_INCHIKEY>
DVSKLQXWNBGVPV-IUGYZAQGSA-N

> <PUBCHEM_XLOGP3_AA>
-2.2

> <PUBCHEM_EXACT_MASS>
516.14790556

> <PUBCHEM_MOLECULAR_FORMULA>
C22H28O14

> <PUBCHEM_MOLECULAR_WEIGHT>
516.4

> <PUBCHEM_OPENEYE_CAN_SMILES>
C1C(C(C(CC1(C(=O)O)O)O)OC(=O)C=CC2=CC(=C(C=C2)O)OC3C(C(C(C(O3)CO)O)O)O)O

> <PUBCHEM_OPENEYE_ISO_SMILES>
C1[C@H](C([C@@H](CC1(C(=O)O)O)O)OC(=O)/C=C/C2=CC(=C(C=C2)O)O[C@@H]3[C@@H]([C@H]([C@@H]([C@H](O3)CO)O)O)O)O

> <PUBCHEM_CACTVS_TPSA>
244

> <PUBCHEM_MONOISOTOPIC_WEIGHT>
516.14790556

> <PUBCHEM_TOTAL_CHARGE>
0

> <PUBCHEM_HEAVY_ATOM_COUNT>
36

> <PUBCHEM_ATOM_DEF_STEREO_COUNT>
7

> <PUBCHEM_ATOM_UDEF_STEREO_COUNT>
0

> <PUBCHEM_BOND_DEF_STEREO_COUNT>
1

> <PUBCHEM_BOND_UDEF_STEREO_COUNT>
0

> <PUBCHEM_ISOTOPIC_ATOM_COUNT>
0

> <PUBCHEM_COMPONENT_COUNT>
1

> <PUBCHEM_CACTVS_TAUTO_COUNT>
5

> <PUBCHEM_COORDINATE_TYPE>
1
5
255

> <PUBCHEM_BONDANNOTATIONS>
23  27  5
29  31  8
29  33  8
19  3  5
31  32  8
32  35  8
33  36  8
35  36  8
20  4  6
26  6  6
21  7  6
22  8  5
24  9  6

$$$$
