 
  -OEChem-10192103592D

 67 70  0     1  0  0  0  0  0999 V2000
   15.5515   -0.2961    0.0000 O   0  0  0  0  0  0  0  0  0  0  0  0
   12.0632    0.5950    0.0000 O   0  0  0  0  0  0  0  0  0  0  0  0
   12.9292   -0.9050    0.0000 O   0  0  0  0  0  0  0  0  0  0  0  0
   11.1972   -0.9050    0.0000 O   0  0  0  0  0  0  0  0  0  0  0  0
   12.9292   -2.9050    0.0000 O   0  0  0  0  0  0  0  0  0  0  0  0
   12.0632    3.5950    0.0000 O   0  0  0  0  0  0  0  0  0  0  0  0
   11.1972   -3.9050    0.0000 O   0  0  0  0  0  0  0  0  0  0  0  0
    9.4651   -2.9050    0.0000 O   0  0  0  0  0  0  0  0  0  0  0  0
   13.7953    3.5950    0.0000 O   0  0  0  0  0  0  0  0  0  0  0  0
    8.5991   -1.4050    0.0000 O   0  0  0  0  0  0  0  0  0  0  0  0
    7.7331    0.0950    0.0000 O   0  0  0  0  0  0  0  0  0  0  0  0
    2.5369   -2.9050    0.0000 O   0  0  0  0  0  0  0  0  0  0  0  0
   13.7953    0.5950    0.0000 C   0  0  3  0  0  0  0  0  0  0  0  0
   14.7415    0.2903    0.0000 C   0  0  2  0  0  0  0  0  0  0  0  0
   13.7953    1.5950    0.0000 C   0  0  3  0  0  0  0  0  0  0  0  0
   15.3251    1.0950    0.0000 C   0  0  0  0  0  0  0  0  0  0  0  0
   14.7415    1.8997    0.0000 C   0  0  0  0  0  0  0  0  0  0  0  0
   12.9292    0.0950    0.0000 C   0  0  1  0  0  0  0  0  0  0  0  0
   12.9292    2.0950    0.0000 C   0  0  0  0  0  0  0  0  0  0  0  0
   14.4341   -0.6613    0.0000 C   0  0  0  0  0  0  0  0  0  0  0  0
   12.0632    1.5950    0.0000 C   0  0  0  0  0  0  0  0  0  0  0  0
   12.0632   -1.4050    0.0000 C   0  0  2  0  0  0  0  0  0  0  0  0
   12.0632   -2.4050    0.0000 C   0  0  1  0  0  0  0  0  0  0  0  0
   12.9292    3.0950    0.0000 C   0  0  0  0  0  0  0  0  0  0  0  0
   11.1972   -2.9050    0.0000 C   0  0  2  0  0  0  0  0  0  0  0  0
   10.3312   -2.4050    0.0000 C   0  0  1  0  0  0  0  0  0  0  0  0
   10.3312   -1.4050    0.0000 C   0  0  1  0  0  0  0  0  0  0  0  0
    9.4651   -0.9050    0.0000 C   0  0  0  0  0  0  0  0  0  0  0  0
    7.7331   -0.9050    0.0000 C   0  0  0  0  0  0  0  0  0  0  0  0
    6.8671   -1.4050    0.0000 C   0  0  0  0  0  0  0  0  0  0  0  0
    6.0010   -0.9050    0.0000 C   0  0  0  0  0  0  0  0  0  0  0  0
    5.1350   -1.4050    0.0000 C   0  0  0  0  0  0  0  0  0  0  0  0
    5.1350   -2.4050    0.0000 C   0  0  0  0  0  0  0  0  0  0  0  0
    4.2690   -0.9050    0.0000 C   0  0  0  0  0  0  0  0  0  0  0  0
    4.2690   -2.9050    0.0000 C   0  0  0  0  0  0  0  0  0  0  0  0
    3.4030   -1.4050    0.0000 C   0  0  0  0  0  0  0  0  0  0  0  0
    3.4030   -2.4050    0.0000 C   0  0  0  0  0  0  0  0  0  0  0  0
   13.8609   -0.0215    0.0000 H   0  0  0  0  0  0  0  0  0  0  0  0
   13.8609    2.2115    0.0000 H   0  0  0  0  0  0  0  0  0  0  0  0
   15.7860    0.6803    0.0000 H   0  0  0  0  0  0  0  0  0  0  0  0
   15.7860    1.5097    0.0000 H   0  0  0  0  0  0  0  0  0  0  0  0
   15.2789    2.2090    0.0000 H   0  0  0  0  0  0  0  0  0  0  0  0
   14.4905    2.4666    0.0000 H   0  0  0  0  0  0  0  0  0  0  0  0
   12.3923   -0.2150    0.0000 H   0  0  0  0  0  0  0  0  0  0  0  0
   13.8441   -0.4708    0.0000 H   0  0  0  0  0  0  0  0  0  0  0  0
   14.2435   -1.2513    0.0000 H   0  0  0  0  0  0  0  0  0  0  0  0
   15.0241   -0.8519    0.0000 H   0  0  0  0  0  0  0  0  0  0  0  0
   16.1175   -0.0430    0.0000 H   0  0  0  0  0  0  0  0  0  0  0  0
   11.5263    1.9050    0.0000 H   0  0  0  0  0  0  0  0  0  0  0  0
   12.0632   -0.7850    0.0000 H   0  0  0  0  0  0  0  0  0  0  0  0
   12.0632   -3.0250    0.0000 H   0  0  0  0  0  0  0  0  0  0  0  0
   10.6603   -3.2150    0.0000 H   0  0  0  0  0  0  0  0  0  0  0  0
    9.7942   -2.0950    0.0000 H   0  0  0  0  0  0  0  0  0  0  0  0
   10.3312   -0.7850    0.0000 H   0  0  0  0  0  0  0  0  0  0  0  0
    9.8637   -0.4301    0.0000 H   0  0  0  0  0  0  0  0  0  0  0  0
    9.0666   -0.4301    0.0000 H   0  0  0  0  0  0  0  0  0  0  0  0
   12.9292   -3.5250    0.0000 H   0  0  0  0  0  0  0  0  0  0  0  0
   12.0632    4.2150    0.0000 H   0  0  0  0  0  0  0  0  0  0  0  0
   10.6603   -4.2150    0.0000 H   0  0  0  0  0  0  0  0  0  0  0  0
    9.4651   -3.5250    0.0000 H   0  0  0  0  0  0  0  0  0  0  0  0
    6.8671   -2.0250    0.0000 H   0  0  0  0  0  0  0  0  0  0  0  0
    6.0010   -0.2850    0.0000 H   0  0  0  0  0  0  0  0  0  0  0  0
    5.6720   -2.7150    0.0000 H   0  0  0  0  0  0  0  0  0  0  0  0
    4.2690   -0.2850    0.0000 H   0  0  0  0  0  0  0  0  0  0  0  0
    4.2690   -3.5250    0.0000 H   0  0  0  0  0  0  0  0  0  0  0  0
    2.8660   -1.0950    0.0000 H   0  0  0  0  0  0  0  0  0  0  0  0
    2.0000   -2.5950    0.0000 H   0  0  0  0  0  0  0  0  0  0  0  0
 14  1  1  6  0  0  0
  1 48  1  0  0  0  0
  2 18  1  0  0  0  0
  2 21  1  0  0  0  0
  3 18  1  0  0  0  0
 22  3  1  1  0  0  0
  4 22  1  0  0  0  0
  4 27  1  0  0  0  0
 23  5  1  6  0  0  0
  5 57  1  0  0  0  0
  6 24  1  0  0  0  0
  6 58  1  0  0  0  0
 25  7  1  1  0  0  0
  7 59  1  0  0  0  0
 26  8  1  6  0  0  0
  8 60  1  0  0  0  0
  9 24  2  0  0  0  0
 10 28  1  0  0  0  0
 10 29  1  0  0  0  0
 11 29  2  0  0  0  0
 12 37  1  0  0  0  0
 12 67  1  0  0  0  0
 13 14  1  0  0  0  0
 13 15  1  0  0  0  0
 13 18  1  0  0  0  0
 13 38  1  0  0  0  0
 14 16  1  0  0  0  0
 14 20  1  0  0  0  0
 15 17  1  0  0  0  0
 15 19  1  0  0  0  0
 15 39  1  0  0  0  0
 16 17  1  0  0  0  0
 16 40  1  0  0  0  0
 16 41  1  0  0  0  0
 17 42  1  0  0  0  0
 17 43  1  0  0  0  0
 18 44  1  0  0  0  0
 19 21  2  0  0  0  0
 19 24  1  0  0  0  0
 20 45  1  0  0  0  0
 20 46  1  0  0  0  0
 20 47  1  0  0  0  0
 21 49  1  0  0  0  0
 22 23  1  0  0  0  0
 22 50  1  0  0  0  0
 23 25  1  0  0  0  0
 23 51  1  0  0  0  0
 25 26  1  0  0  0  0
 25 52  1  0  0  0  0
 26 27  1  0  0  0  0
 26 53  1  0  0  0  0
 27 28  1  1  0  0  0
 27 54  1  0  0  0  0
 28 55  1  0  0  0  0
 28 56  1  0  0  0  0
 29 30  1  0  0  0  0
 30 31  2  0  0  0  0
 30 61  1  0  0  0  0
 31 32  1  0  0  0  0
 31 62  1  0  0  0  0
 32 33  2  0  0  0  0
 32 34  1  0  0  0  0
 33 35  1  0  0  0  0
 33 63  1  0  0  0  0
 34 36  2  0  0  0  0
 34 64  1  0  0  0  0
 35 37  2  0  0  0  0
 35 65  1  0  0  0  0
 36 37  1  0  0  0  0
 36 66  1  0  0  0  0
M  END
> <PUBCHEM_COMPOUND_CID>
71816434

> <PUBCHEM_COMPOUND_CANONICALIZED>
1

> <PUBCHEM_CACTVS_COMPLEXITY>
896

> <PUBCHEM_CACTVS_HBOND_ACCEPTOR>
12

> <PUBCHEM_CACTVS_HBOND_DONOR>
6

> <PUBCHEM_CACTVS_ROTATABLE_BOND>
8

> <PUBCHEM_CACTVS_SUBSKEYS>
AAADceB4PAAAAAAAAAAAAAAAAAAAAYAAAAA0QIAAAAAAAEABAAAAGgAACAAADVSwmAMyDoAABgCIAiDSCAACCAAgIAAIiAEGCMgZNjKCMRKicAAlwBEPuYfI7PzOoAAAAAAAAABAAAAAAAAAAYAADAAAAA==

> <PUBCHEM_IUPAC_OPENEYE_NAME>
(1S,7S)-7-hydroxy-7-methyl-1-[(2S,3R,4S,5S,6R)-3,4,5-trihydroxy-6-[[(E)-3-(4-hydroxyphenyl)prop-2-enoyl]oxymethyl]tetrahydropyran-2-yl]oxy-4a,5,6,7a-tetrahydro-1H-cyclopenta[c]pyran-4-carboxylic acid

> <PUBCHEM_IUPAC_CAS_NAME>
(1S,7S)-7-hydroxy-7-methyl-1-[[(2S,3R,4S,5S,6R)-3,4,5-trihydroxy-6-[[(E)-3-(4-hydroxyphenyl)-1-oxoprop-2-enoxy]methyl]-2-oxanyl]oxy]-4a,5,6,7a-tetrahydro-1H-cyclopenta[c]pyran-4-carboxylic acid

> <PUBCHEM_IUPAC_NAME_MARKUP>
(1<I>S</I>,7<I>S</I>)-7-hydroxy-7-methyl-1-[(2<I>S</I>,3<I>R</I>,4<I>S</I>,5<I>S</I>,6<I>R</I>)-3,4,5-trihydroxy-6-[[(<I>E</I>)-3-(4-hydroxyphenyl)prop-2-enoyl]oxymethyl]oxan-2-yl]oxy-4<I>a</I>,5,6,7<I>a</I>-tetrahydro-1<I>H</I>-cyclopenta[c]pyran-4-carboxylic acid

> <PUBCHEM_IUPAC_NAME>
(1S,7S)-7-hydroxy-7-methyl-1-[(2S,3R,4S,5S,6R)-3,4,5-trihydroxy-6-[[(E)-3-(4-hydroxyphenyl)prop-2-enoyl]oxymethyl]oxan-2-yl]oxy-4a,5,6,7a-tetrahydro-1H-cyclopenta[c]pyran-4-carboxylic acid

> <PUBCHEM_IUPAC_SYSTEMATIC_NAME>
(1S,7S)-1-[(2S,3R,4S,5S,6R)-6-[[(E)-3-(4-hydroxyphenyl)prop-2-enoyl]oxymethyl]-3,4,5-tris(oxidanyl)oxan-2-yl]oxy-7-methyl-7-oxidanyl-4a,5,6,7a-tetrahydro-1H-cyclopenta[c]pyran-4-carboxylic acid

> <PUBCHEM_IUPAC_TRADITIONAL_NAME>
(1S,7S)-7-hydroxy-7-methyl-1-[(2S,3R,4S,5S,6R)-3,4,5-trihydroxy-6-[[(E)-3-(4-hydroxyphenyl)acryloyl]oxymethyl]tetrahydropyran-2-yl]oxy-4a,5,6,7a-tetrahydro-1H-cyclopenta[c]pyran-4-carboxylic acid

> <PUBCHEM_IUPAC_INCHI>
InChI=1S/C25H30O12/c1-25(33)9-8-14-15(22(31)32)10-35-23(18(14)25)37-24-21(30)20(29)19(28)16(36-24)11-34-17(27)7-4-12-2-5-13(26)6-3-12/h2-7,10,14,16,18-21,23-24,26,28-30,33H,8-9,11H2,1H3,(H,31,32)/b7-4+/t14?,16-,18?,19-,20+,21-,23+,24+,25+/m1/s1

> <PUBCHEM_IUPAC_INCHIKEY>
BZOWSEVETQYSBF-MWIYSTHQSA-N

> <PUBCHEM_XLOGP3_AA>
-0.2

> <PUBCHEM_EXACT_MASS>
522.17372639

> <PUBCHEM_MOLECULAR_FORMULA>
C25H30O12

> <PUBCHEM_MOLECULAR_WEIGHT>
522.5

> <PUBCHEM_OPENEYE_CAN_SMILES>
CC1(CCC2C1C(OC=C2C(=O)O)OC3C(C(C(C(O3)COC(=O)C=CC4=CC=C(C=C4)O)O)O)O)O

> <PUBCHEM_OPENEYE_ISO_SMILES>
C[C@@]1(CCC2C1[C@@H](OC=C2C(=O)O)O[C@H]3[C@@H]([C@H]([C@@H]([C@H](O3)COC(=O)/C=C/C4=CC=C(C=C4)O)O)O)O)O

> <PUBCHEM_CACTVS_TPSA>
192

> <PUBCHEM_MONOISOTOPIC_WEIGHT>
522.17372639

> <PUBCHEM_TOTAL_CHARGE>
0

> <PUBCHEM_HEAVY_ATOM_COUNT>
37

> <PUBCHEM_ATOM_DEF_STEREO_COUNT>
7

> <PUBCHEM_ATOM_UDEF_STEREO_COUNT>
2

> <PUBCHEM_BOND_DEF_STEREO_COUNT>
1

> <PUBCHEM_BOND_UDEF_STEREO_COUNT>
0

> <PUBCHEM_ISOTOPIC_ATOM_COUNT>
0

> <PUBCHEM_COMPONENT_COUNT>
1

> <PUBCHEM_CACTVS_TAUTO_COUNT>
-1

> <PUBCHEM_COORDINATE_TYPE>
1
5
255

> <PUBCHEM_BONDANNOTATIONS>
14  1  6
13  18  3
15  17  3
27  28  5
22  3  5
32  33  8
32  34  8
33  35  8
34  36  8
35  37  8
36  37  8
23  5  6
25  7  5
26  8  6

$$$$
