 
  -OEChem-10192103502D

 53 52  0     0  0  0  0  0  0999 V2000
    3.4030    0.0485    0.0000 P   0  0  0  0  0  0  0  0  0  0  0  0
    4.2690    0.5485    0.0000 O   0  0  0  0  0  0  0  0  0  0  0  0
    2.5369   -0.4515    0.0000 O   0  0  0  0  0  0  0  0  0  0  0  0
    2.9030    0.9145    0.0000 O   0  0  0  0  0  0  0  0  0  0  0  0
    3.9030   -0.8175    0.0000 O   0  0  0  0  0  0  0  0  0  0  0  0
   10.3312    0.0485    0.0000 C   0  0  0  0  0  0  0  0  0  0  0  0
    8.5991    0.0485    0.0000 C   0  0  0  0  0  0  0  0  0  0  0  0
    7.7331    0.5485    0.0000 C   0  0  0  0  0  0  0  0  0  0  0  0
   11.1972    0.5485    0.0000 C   0  0  0  0  0  0  0  0  0  0  0  0
    9.4651    0.5485    0.0000 C   0  0  0  0  0  0  0  0  0  0  0  0
    6.8671    0.0485    0.0000 C   0  0  0  0  0  0  0  0  0  0  0  0
   10.3312   -0.9515    0.0000 C   0  0  0  0  0  0  0  0  0  0  0  0
   12.0632    0.0485    0.0000 C   0  0  0  0  0  0  0  0  0  0  0  0
    6.8671   -0.9515    0.0000 C   0  0  0  0  0  0  0  0  0  0  0  0
    6.0010    0.5485    0.0000 C   0  0  0  0  0  0  0  0  0  0  0  0
   11.1972   -1.4515    0.0000 C   0  0  0  0  0  0  0  0  0  0  0  0
   12.9292    0.5485    0.0000 C   0  0  0  0  0  0  0  0  0  0  0  0
    7.7331   -1.4515    0.0000 C   0  0  0  0  0  0  0  0  0  0  0  0
    5.1350    0.0485    0.0000 C   0  0  0  0  0  0  0  0  0  0  0  0
   13.7953    0.0485    0.0000 C   0  0  0  0  0  0  0  0  0  0  0  0
   14.6613    0.5485    0.0000 C   0  0  0  0  0  0  0  0  0  0  0  0
   13.7953   -0.9515    0.0000 C   0  0  0  0  0  0  0  0  0  0  0  0
    8.2006   -0.4264    0.0000 H   0  0  0  0  0  0  0  0  0  0  0  0
    8.9976   -0.4264    0.0000 H   0  0  0  0  0  0  0  0  0  0  0  0
    8.1316    1.0235    0.0000 H   0  0  0  0  0  0  0  0  0  0  0  0
    7.3346    1.0235    0.0000 H   0  0  0  0  0  0  0  0  0  0  0  0
   11.5957    1.0235    0.0000 H   0  0  0  0  0  0  0  0  0  0  0  0
   10.7987    1.0235    0.0000 H   0  0  0  0  0  0  0  0  0  0  0  0
    9.4651    1.1685    0.0000 H   0  0  0  0  0  0  0  0  0  0  0  0
    9.7206   -0.8438    0.0000 H   0  0  0  0  0  0  0  0  0  0  0  0
   10.1191   -1.5341    0.0000 H   0  0  0  0  0  0  0  0  0  0  0  0
   11.6647   -0.4264    0.0000 H   0  0  0  0  0  0  0  0  0  0  0  0
   12.4617   -0.4264    0.0000 H   0  0  0  0  0  0  0  0  0  0  0  0
    6.2565   -0.8438    0.0000 H   0  0  0  0  0  0  0  0  0  0  0  0
    6.6550   -1.5341    0.0000 H   0  0  0  0  0  0  0  0  0  0  0  0
    6.0010    1.1685    0.0000 H   0  0  0  0  0  0  0  0  0  0  0  0
   10.8872   -1.9884    0.0000 H   0  0  0  0  0  0  0  0  0  0  0  0
   11.7341   -1.7615    0.0000 H   0  0  0  0  0  0  0  0  0  0  0  0
   11.5072   -0.9145    0.0000 H   0  0  0  0  0  0  0  0  0  0  0  0
   12.9292    1.1685    0.0000 H   0  0  0  0  0  0  0  0  0  0  0  0
    7.4231   -1.9884    0.0000 H   0  0  0  0  0  0  0  0  0  0  0  0
    8.2700   -1.7615    0.0000 H   0  0  0  0  0  0  0  0  0  0  0  0
    8.0431   -0.9145    0.0000 H   0  0  0  0  0  0  0  0  0  0  0  0
    4.7365   -0.4264    0.0000 H   0  0  0  0  0  0  0  0  0  0  0  0
    5.5335   -0.4264    0.0000 H   0  0  0  0  0  0  0  0  0  0  0  0
   14.9713    0.0116    0.0000 H   0  0  0  0  0  0  0  0  0  0  0  0
   15.1982    0.8585    0.0000 H   0  0  0  0  0  0  0  0  0  0  0  0
   14.3513    1.0855    0.0000 H   0  0  0  0  0  0  0  0  0  0  0  0
   13.1753   -0.9515    0.0000 H   0  0  0  0  0  0  0  0  0  0  0  0
   13.7953   -1.5715    0.0000 H   0  0  0  0  0  0  0  0  0  0  0  0
   14.4153   -0.9515    0.0000 H   0  0  0  0  0  0  0  0  0  0  0  0
    2.0000   -0.1415    0.0000 H   0  0  0  0  0  0  0  0  0  0  0  0
    3.2130    1.4515    0.0000 H   0  0  0  0  0  0  0  0  0  0  0  0
  1  2  1  0  0  0  0
  1  3  1  0  0  0  0
  1  4  1  0  0  0  0
  1  5  2  0  0  0  0
  2 19  1  0  0  0  0
  3 52  1  0  0  0  0
  4 53  1  0  0  0  0
  6  9  1  0  0  0  0
  6 10  2  0  0  0  0
  6 12  1  0  0  0  0
  7  8  1  0  0  0  0
  7 10  1  0  0  0  0
  7 23  1  0  0  0  0
  7 24  1  0  0  0  0
  8 11  1  0  0  0  0
  8 25  1  0  0  0  0
  8 26  1  0  0  0  0
  9 13  1  0  0  0  0
  9 27  1  0  0  0  0
  9 28  1  0  0  0  0
 10 29  1  0  0  0  0
 11 14  1  0  0  0  0
 11 15  2  0  0  0  0
 12 16  1  0  0  0  0
 12 30  1  0  0  0  0
 12 31  1  0  0  0  0
 13 17  1  0  0  0  0
 13 32  1  0  0  0  0
 13 33  1  0  0  0  0
 14 18  1  0  0  0  0
 14 34  1  0  0  0  0
 14 35  1  0  0  0  0
 15 19  1  0  0  0  0
 15 36  1  0  0  0  0
 16 37  1  0  0  0  0
 16 38  1  0  0  0  0
 16 39  1  0  0  0  0
 17 20  2  0  0  0  0
 17 40  1  0  0  0  0
 18 41  1  0  0  0  0
 18 42  1  0  0  0  0
 18 43  1  0  0  0  0
 19 44  1  0  0  0  0
 19 45  1  0  0  0  0
 20 21  1  0  0  0  0
 20 22  1  0  0  0  0
 21 46  1  0  0  0  0
 21 47  1  0  0  0  0
 21 48  1  0  0  0  0
 22 49  1  0  0  0  0
 22 50  1  0  0  0  0
 22 51  1  0  0  0  0
M  END
> <PUBCHEM_COMPOUND_CID>
135334495

> <PUBCHEM_COMPOUND_CANONICALIZED>
1

> <PUBCHEM_CACTVS_COMPLEXITY>
440

> <PUBCHEM_CACTVS_HBOND_ACCEPTOR>
4

> <PUBCHEM_CACTVS_HBOND_DONOR>
2

> <PUBCHEM_CACTVS_ROTATABLE_BOND>
11

> <PUBCHEM_CACTVS_SUBSKEYS>
AAADceB4OAIAAAAAAAAAAAAAAAAAAAAAAAAAAAAAAAAAAAAAAAAAGgAACCAADACggAICAAAAARCAQiBCAIAAAAAgAAAACAAAAAgABAIAAQAAEAAAgAAIAAMAAAAAAAAAAAAAAAAAAAAAAAAAAAAAAAAAAA==

> <PUBCHEM_IUPAC_OPENEYE_NAME>
[(2E,6E)-3,7-diethyl-11-methyl-dodeca-2,6,10-trienyl] dihydrogen phosphate

> <PUBCHEM_IUPAC_CAS_NAME>
[(2E,6E)-3,7-diethyl-11-methyldodeca-2,6,10-trienyl] dihydrogen phosphate

> <PUBCHEM_IUPAC_NAME_MARKUP>
[(2<I>E</I>,6<I>E</I>)-3,7-diethyl-11-methyldodeca-2,6,10-trienyl] dihydrogen phosphate

> <PUBCHEM_IUPAC_NAME>
[(2E,6E)-3,7-diethyl-11-methyldodeca-2,6,10-trienyl] dihydrogen phosphate

> <PUBCHEM_IUPAC_SYSTEMATIC_NAME>
[(2E,6E)-3,7-diethyl-11-methyl-dodeca-2,6,10-trienyl] dihydrogen phosphate

> <PUBCHEM_IUPAC_TRADITIONAL_NAME>
[(2E,6E)-3,7-diethyl-11-methyl-dodeca-2,6,10-trienyl] dihydrogen phosphate

> <PUBCHEM_IUPAC_INCHI>
InChI=1S/C17H31O4P/c1-5-16(10-7-9-15(3)4)11-8-12-17(6-2)13-14-21-22(18,19)20/h9,11,13H,5-8,10,12,14H2,1-4H3,(H2,18,19,20)/b16-11+,17-13+

> <PUBCHEM_IUPAC_INCHIKEY>
BMNUSODWJXHZSY-IUBLYSDUSA-N

> <PUBCHEM_XLOGP3_AA>
4.5

> <PUBCHEM_EXACT_MASS>
330.19599646

> <PUBCHEM_MOLECULAR_FORMULA>
C17H31O4P

> <PUBCHEM_MOLECULAR_WEIGHT>
330.4

> <PUBCHEM_OPENEYE_CAN_SMILES>
CCC(=CCCC(=CCOP(=O)(O)O)CC)CCC=C(C)C

> <PUBCHEM_OPENEYE_ISO_SMILES>
CC/C(=C\CC/C(=C/COP(=O)(O)O)/CC)/CCC=C(C)C

> <PUBCHEM_CACTVS_TPSA>
66.8

> <PUBCHEM_MONOISOTOPIC_WEIGHT>
330.19599646

> <PUBCHEM_TOTAL_CHARGE>
0

> <PUBCHEM_HEAVY_ATOM_COUNT>
22

> <PUBCHEM_ATOM_DEF_STEREO_COUNT>
0

> <PUBCHEM_ATOM_UDEF_STEREO_COUNT>
0

> <PUBCHEM_BOND_DEF_STEREO_COUNT>
2

> <PUBCHEM_BOND_UDEF_STEREO_COUNT>
0

> <PUBCHEM_ISOTOPIC_ATOM_COUNT>
0

> <PUBCHEM_COMPONENT_COUNT>
1

> <PUBCHEM_CACTVS_TAUTO_COUNT>
-1

> <PUBCHEM_COORDINATE_TYPE>
1
5
255

$$$$
