 
  -OEChem-10192103262D

 39 39  0     1  0  0  0  0  0999 V2000
    4.2690    0.0000    0.0000 S   0  0  0  0  0  0  0  0  0  0  0  0
    3.2690    1.0000    0.0000 O   0  0  0  0  0  0  0  0  0  0  0  0
    5.1350    2.5000    0.0000 O   0  0  0  0  0  0  0  0  0  0  0  0
    5.7690    1.8660    0.0000 O   0  0  0  0  0  0  0  0  0  0  0  0
    5.2087   -0.3420    0.0000 O   0  0  0  0  0  0  0  0  0  0  0  0
    3.2690    0.0000    0.0000 O   0  0  0  0  0  0  0  0  0  0  0  0
    2.5369    2.0000    0.0000 O   0  0  0  0  0  0  0  0  0  0  0  0
    2.5369    4.0000    0.0000 O   0  0  0  0  0  0  0  0  0  0  0  0
    4.2690    1.0000    0.0000 C   0  0  1  0  0  0  0  0  0  0  0  0
    4.2690    2.0000    0.0000 C   0  0  2  0  0  0  0  0  0  0  0  0
    5.2690    1.0000    0.0000 C   0  0  2  0  0  0  0  0  0  0  0  0
    3.4030    2.5000    0.0000 C   0  0  2  0  0  0  0  0  0  0  0  0
    4.2690   -1.0000    0.0000 C   0  0  0  0  0  0  0  0  0  0  0  0
    6.0350    0.3572    0.0000 C   0  0  0  0  0  0  0  0  0  0  0  0
    5.1350   -1.5000    0.0000 C   0  0  0  0  0  0  0  0  0  0  0  0
    3.4030   -1.5000    0.0000 C   0  0  0  0  0  0  0  0  0  0  0  0
    3.4030    3.5000    0.0000 C   0  0  0  0  0  0  0  0  0  0  0  0
    5.1350   -2.5000    0.0000 C   0  0  0  0  0  0  0  0  0  0  0  0
    3.4030   -2.5000    0.0000 C   0  0  0  0  0  0  0  0  0  0  0  0
    4.2690   -3.0000    0.0000 C   0  0  0  0  0  0  0  0  0  0  0  0
    4.2690   -4.0000    0.0000 C   0  0  0  0  0  0  0  0  0  0  0  0
    4.2690    2.6200    0.0000 H   0  0  0  0  0  0  0  0  0  0  0  0
    4.9590    1.5369    0.0000 H   0  0  0  0  0  0  0  0  0  0  0  0
    3.4030    1.8800    0.0000 H   0  0  0  0  0  0  0  0  0  0  0  0
    5.6365   -0.1177    0.0000 H   0  0  0  0  0  0  0  0  0  0  0  0
    6.5100   -0.0413    0.0000 H   0  0  0  0  0  0  0  0  0  0  0  0
    6.4336    0.8322    0.0000 H   0  0  0  0  0  0  0  0  0  0  0  0
    2.9590    1.5369    0.0000 H   0  0  0  0  0  0  0  0  0  0  0  0
    5.1350    3.1200    0.0000 H   0  0  0  0  0  0  0  0  0  0  0  0
    6.3890    1.8660    0.0000 H   0  0  0  0  0  0  0  0  0  0  0  0
    5.6720   -1.1900    0.0000 H   0  0  0  0  0  0  0  0  0  0  0  0
    2.8660   -1.1900    0.0000 H   0  0  0  0  0  0  0  0  0  0  0  0
    3.9399    3.8100    0.0000 H   0  0  0  0  0  0  0  0  0  0  0  0
    2.0000    2.3100    0.0000 H   0  0  0  0  0  0  0  0  0  0  0  0
    5.6720   -2.8100    0.0000 H   0  0  0  0  0  0  0  0  0  0  0  0
    2.8660   -2.8100    0.0000 H   0  0  0  0  0  0  0  0  0  0  0  0
    3.6490   -4.0000    0.0000 H   0  0  0  0  0  0  0  0  0  0  0  0
    4.2690   -4.6200    0.0000 H   0  0  0  0  0  0  0  0  0  0  0  0
    4.8890   -4.0000    0.0000 H   0  0  0  0  0  0  0  0  0  0  0  0
  1  5  2  0  0  0  0
  1  6  2  0  0  0  0
  1  9  1  0  0  0  0
  1 13  1  0  0  0  0
  9  2  1  6  0  0  0
  2 28  1  0  0  0  0
 10  3  1  6  0  0  0
  3 29  1  0  0  0  0
 11  4  1  1  0  0  0
  4 30  1  0  0  0  0
 12  7  1  1  0  0  0
  7 34  1  0  0  0  0
  8 17  2  0  0  0  0
  9 10  1  0  0  0  0
  9 11  1  0  0  0  0
 10 12  1  0  0  0  0
 10 22  1  0  0  0  0
 11 14  1  0  0  0  0
 11 23  1  0  0  0  0
 12 17  1  0  0  0  0
 12 24  1  0  0  0  0
 13 15  2  0  0  0  0
 13 16  1  0  0  0  0
 14 25  1  0  0  0  0
 14 26  1  0  0  0  0
 14 27  1  0  0  0  0
 15 18  1  0  0  0  0
 15 31  1  0  0  0  0
 16 19  2  0  0  0  0
 16 32  1  0  0  0  0
 17 33  1  0  0  0  0
 18 20  2  0  0  0  0
 18 35  1  0  0  0  0
 19 20  1  0  0  0  0
 19 36  1  0  0  0  0
 20 21  1  0  0  0  0
 21 37  1  0  0  0  0
 21 38  1  0  0  0  0
 21 39  1  0  0  0  0
M  END
> <PUBCHEM_COMPOUND_CID>
129769198

> <PUBCHEM_COMPOUND_CANONICALIZED>
1

> <PUBCHEM_CACTVS_COMPLEXITY>
450

> <PUBCHEM_CACTVS_HBOND_ACCEPTOR>
7

> <PUBCHEM_CACTVS_HBOND_DONOR>
4

> <PUBCHEM_CACTVS_ROTATABLE_BOND>
6

> <PUBCHEM_CACTVS_SUBSKEYS>
AAADceBwOABAAAAAAAAAAAAAAAAAAAAAAAAwAAAAAAAAAAABAAAAGgQACAAADBSg2AIyAYAAAgqIAihSgHJCAAAgCBAIiBlAAIgJMDagERCAYAAloAApiAfKjABOEAAAAAAAAAAgAAAAAAAAAAAAAAAAAA==

> <PUBCHEM_IUPAC_OPENEYE_NAME>
(2R,3S,4R,5S)-2,3,4,5-tetrahydroxy-4-(p-tolylsulfonyl)hexanal

> <PUBCHEM_IUPAC_CAS_NAME>
(2R,3S,4R,5S)-2,3,4,5-tetrahydroxy-4-(4-methylphenyl)sulfonylhexanal

> <PUBCHEM_IUPAC_NAME_MARKUP>
(2<I>R</I>,3<I>S</I>,4<I>R</I>,5<I>S</I>)-2,3,4,5-tetrahydroxy-4-(4-methylphenyl)sulfonylhexanal

> <PUBCHEM_IUPAC_NAME>
(2R,3S,4R,5S)-2,3,4,5-tetrahydroxy-4-(4-methylphenyl)sulfonylhexanal

> <PUBCHEM_IUPAC_SYSTEMATIC_NAME>
(2R,3S,4R,5S)-4-(4-methylphenyl)sulfonyl-2,3,4,5-tetrakis(oxidanyl)hexanal

> <PUBCHEM_IUPAC_TRADITIONAL_NAME>
(2R,3S,4R,5S)-2,3,4,5-tetrahydroxy-4-tosyl-hexanal

> <PUBCHEM_IUPAC_INCHI>
InChI=1S/C13H18O7S/c1-8-3-5-10(6-4-8)21(19,20)13(18,9(2)15)12(17)11(16)7-14/h3-7,9,11-12,15-18H,1-2H3/t9-,11-,12-,13+/m0/s1

> <PUBCHEM_IUPAC_INCHIKEY>
VZKMCQYPKNNUEX-XYJRDEOASA-N

> <PUBCHEM_XLOGP3_AA>
-1.2

> <PUBCHEM_EXACT_MASS>
318.07732408

> <PUBCHEM_MOLECULAR_FORMULA>
C13H18O7S

> <PUBCHEM_MOLECULAR_WEIGHT>
318.34

> <PUBCHEM_OPENEYE_CAN_SMILES>
CC1=CC=C(C=C1)S(=O)(=O)C(C(C)O)(C(C(C=O)O)O)O

> <PUBCHEM_OPENEYE_ISO_SMILES>
CC1=CC=C(C=C1)S(=O)(=O)[C@]([C@H](C)O)([C@H]([C@H](C=O)O)O)O

> <PUBCHEM_CACTVS_TPSA>
141

> <PUBCHEM_MONOISOTOPIC_WEIGHT>
318.07732408

> <PUBCHEM_TOTAL_CHARGE>
0

> <PUBCHEM_HEAVY_ATOM_COUNT>
21

> <PUBCHEM_ATOM_DEF_STEREO_COUNT>
4

> <PUBCHEM_ATOM_UDEF_STEREO_COUNT>
0

> <PUBCHEM_BOND_DEF_STEREO_COUNT>
0

> <PUBCHEM_BOND_UDEF_STEREO_COUNT>
0

> <PUBCHEM_ISOTOPIC_ATOM_COUNT>
0

> <PUBCHEM_COMPONENT_COUNT>
1

> <PUBCHEM_CACTVS_TAUTO_COUNT>
-1

> <PUBCHEM_COORDINATE_TYPE>
1
5
255

> <PUBCHEM_BONDANNOTATIONS>
13  15  8
13  16  8
15  18  8
16  19  8
18  20  8
19  20  8
9  2  6
10  3  6
11  4  5
12  7  5

$$$$
