 
  -OEChem-10192103382D

 39 38  0     1  0  0  0  0  0999 V2000
    5.2642   -0.7739    0.0000 O   0  0  0  0  0  0  0  0  0  0  0  0
    6.9962   -2.7739    0.0000 O   0  0  0  0  0  0  0  0  0  0  0  0
    2.6518   -1.1926    0.0000 O   0  0  0  0  0  0  0  0  0  0  0  0
    8.7283   -0.7739    0.0000 O   0  0  0  0  0  0  0  0  0  0  0  0
    2.6106    1.4529    0.0000 O   0  0  0  0  0  0  0  0  0  0  0  0
    5.7882   -3.2136    0.0000 O   0  0  0  0  0  0  0  0  0  0  0  0
    3.9787   -2.3060    0.0000 O   0  0  0  0  0  0  0  0  0  0  0  0
    7.8623   -2.2739    0.0000 O   0  0  0  0  0  0  0  0  0  0  0  0
    2.3098   -0.2529    0.0000 O   0  0  0  0  0  0  0  0  0  0  0  0
    7.8623    1.7261    0.0000 O   0  0  0  0  0  0  0  0  0  0  0  0
    4.8809    2.8113    0.0000 O   0  0  0  0  0  0  0  0  0  0  0  0
    8.7283    0.2261    0.0000 O   0  0  0  0  0  0  0  0  0  0  0  0
    3.2533    2.2189    0.0000 O   0  0  0  0  0  0  0  0  0  0  0  0
    6.1302   -1.2739    0.0000 C   0  0  3  0  0  0  0  0  0  0  0  0
    4.2794   -0.6002    0.0000 C   0  0  3  0  0  0  0  0  0  0  0  0
    6.9962   -0.7739    0.0000 C   0  0  3  0  0  0  0  0  0  0  0  0
    3.9374    0.3396    0.0000 C   0  0  3  0  0  0  0  0  0  0  0  0
    6.9962    0.2261    0.0000 C   0  0  0  0  0  0  0  0  0  0  0  0
    4.5801    1.1055    0.0000 C   0  0  0  0  0  0  0  0  0  0  0  0
    6.1302   -2.2739    0.0000 C   0  0  0  0  0  0  0  0  0  0  0  0
    3.6366   -1.3663    0.0000 C   0  0  0  0  0  0  0  0  0  0  0  0
    7.8623   -1.2739    0.0000 C   0  0  0  0  0  0  0  0  0  0  0  0
    2.9526    0.5132    0.0000 C   0  0  0  0  0  0  0  0  0  0  0  0
    7.8623    0.7261    0.0000 C   0  0  0  0  0  0  0  0  0  0  0  0
    4.2381    2.0452    0.0000 C   0  0  0  0  0  0  0  0  0  0  0  0
    6.1302   -0.6539    0.0000 H   0  0  0  0  0  0  0  0  0  0  0  0
    4.6779   -0.1253    0.0000 H   0  0  0  0  0  0  0  0  0  0  0  0
    6.9962   -1.3939    0.0000 H   0  0  0  0  0  0  0  0  0  0  0  0
    3.7254    0.9222    0.0000 H   0  0  0  0  0  0  0  0  0  0  0  0
    6.7842    0.8087    0.0000 H   0  0  0  0  0  0  0  0  0  0  0  0
    6.3856    0.1185    0.0000 H   0  0  0  0  0  0  0  0  0  0  0  0
    4.9787    0.6306    0.0000 H   0  0  0  0  0  0  0  0  0  0  0  0
    5.1171    1.4155    0.0000 H   0  0  0  0  0  0  0  0  0  0  0  0
    6.9962   -3.3939    0.0000 H   0  0  0  0  0  0  0  0  0  0  0  0
    2.2533   -1.6676    0.0000 H   0  0  0  0  0  0  0  0  0  0  0  0
    9.2652   -1.0839    0.0000 H   0  0  0  0  0  0  0  0  0  0  0  0
    2.0000    1.5606    0.0000 H   0  0  0  0  0  0  0  0  0  0  0  0
    8.3992    2.0361    0.0000 H   0  0  0  0  0  0  0  0  0  0  0  0
    4.6689    3.3939    0.0000 H   0  0  0  0  0  0  0  0  0  0  0  0
  1 14  1  0  0  0  0
  1 15  1  0  0  0  0
  2 20  1  0  0  0  0
  2 34  1  0  0  0  0
  3 21  1  0  0  0  0
  3 35  1  0  0  0  0
  4 22  1  0  0  0  0
  4 36  1  0  0  0  0
  5 23  1  0  0  0  0
  5 37  1  0  0  0  0
  6 20  2  0  0  0  0
  7 21  2  0  0  0  0
  8 22  2  0  0  0  0
  9 23  2  0  0  0  0
 10 24  1  0  0  0  0
 10 38  1  0  0  0  0
 11 25  1  0  0  0  0
 11 39  1  0  0  0  0
 12 24  2  0  0  0  0
 13 25  2  0  0  0  0
 14 16  1  0  0  0  0
 14 20  1  0  0  0  0
 14 26  1  0  0  0  0
 15 17  1  0  0  0  0
 15 21  1  0  0  0  0
 15 27  1  0  0  0  0
 16 18  1  0  0  0  0
 16 22  1  0  0  0  0
 16 28  1  0  0  0  0
 17 19  1  0  0  0  0
 17 23  1  0  0  0  0
 17 29  1  0  0  0  0
 18 24  1  0  0  0  0
 18 30  1  0  0  0  0
 18 31  1  0  0  0  0
 19 25  1  0  0  0  0
 19 32  1  0  0  0  0
 19 33  1  0  0  0  0
M  END
> <PUBCHEM_COMPOUND_CID>
57096702

> <PUBCHEM_COMPOUND_CANONICALIZED>
1

> <PUBCHEM_CACTVS_COMPLEXITY>
530

> <PUBCHEM_CACTVS_HBOND_ACCEPTOR>
13

> <PUBCHEM_CACTVS_HBOND_DONOR>
6

> <PUBCHEM_CACTVS_ROTATABLE_BOND>
12

> <PUBCHEM_CACTVS_SUBSKEYS>
AAADccBwPAAAAAAAAAAAAAAAAAAAAAAAAAAAAAAAAAAAAAAAAAAAGgAACAAADRSggAIACAAABgAIAACQCAIAAAAAAAAAAAFAAAABABYAAAQCQAAFIAADAADLJgAKAAAAAAAAAAAAAAAAAAAAAAAAAAAAAA==

> <PUBCHEM_IUPAC_OPENEYE_NAME>
1-(1,2,3-tricarboxypropoxy)propane-1,2,3-tricarboxylic acid

> <PUBCHEM_IUPAC_CAS_NAME>
1-(1,2,3-tricarboxypropoxy)propane-1,2,3-tricarboxylic acid

> <PUBCHEM_IUPAC_NAME_MARKUP>
1-(1,2,3-tricarboxypropoxy)propane-1,2,3-tricarboxylic acid

> <PUBCHEM_IUPAC_NAME>
1-(1,2,3-tricarboxypropoxy)propane-1,2,3-tricarboxylic acid

> <PUBCHEM_IUPAC_SYSTEMATIC_NAME>
1-[3-carboxy-1,5-bis(oxidanyl)-1,5-bis(oxidanylidene)pentan-2-yl]oxypropane-1,2,3-tricarboxylic acid

> <PUBCHEM_IUPAC_TRADITIONAL_NAME>
1-(1,2,3-tricarboxypropoxy)propane-1,2,3-tricarboxylic acid

> <PUBCHEM_IUPAC_INCHI>
InChI=1S/C12H14O13/c13-5(14)1-3(9(17)18)7(11(21)22)25-8(12(23)24)4(10(19)20)2-6(15)16/h3-4,7-8H,1-2H2,(H,13,14)(H,15,16)(H,17,18)(H,19,20)(H,21,22)(H,23,24)

> <PUBCHEM_IUPAC_INCHIKEY>
DBVIAOLEEZUPEY-UHFFFAOYSA-N

> <PUBCHEM_XLOGP3_AA>
-2.6

> <PUBCHEM_EXACT_MASS>
366.04344050

> <PUBCHEM_MOLECULAR_FORMULA>
C12H14O13

> <PUBCHEM_MOLECULAR_WEIGHT>
366.23

> <PUBCHEM_OPENEYE_CAN_SMILES>
C(C(C(C(=O)O)OC(C(CC(=O)O)C(=O)O)C(=O)O)C(=O)O)C(=O)O

> <PUBCHEM_OPENEYE_ISO_SMILES>
C(C(C(C(=O)O)OC(C(CC(=O)O)C(=O)O)C(=O)O)C(=O)O)C(=O)O

> <PUBCHEM_CACTVS_TPSA>
233

> <PUBCHEM_MONOISOTOPIC_WEIGHT>
366.04344050

> <PUBCHEM_TOTAL_CHARGE>
0

> <PUBCHEM_HEAVY_ATOM_COUNT>
25

> <PUBCHEM_ATOM_DEF_STEREO_COUNT>
0

> <PUBCHEM_ATOM_UDEF_STEREO_COUNT>
4

> <PUBCHEM_BOND_DEF_STEREO_COUNT>
0

> <PUBCHEM_BOND_UDEF_STEREO_COUNT>
0

> <PUBCHEM_ISOTOPIC_ATOM_COUNT>
0

> <PUBCHEM_COMPONENT_COUNT>
1

> <PUBCHEM_CACTVS_TAUTO_COUNT>
-1

> <PUBCHEM_COORDINATE_TYPE>
1
5
255

> <PUBCHEM_BONDANNOTATIONS>
14  20  3
15  21  3
16  18  3
17  19  3

$$$$
