 
  -OEChem-10192103262D

 60 63  0     1  0  0  0  0  0999 V2000
    7.6377    3.0082    0.0000 O   0  0  0  0  0  0  0  0  0  0  0  0
    7.5915   -1.6262    0.0000 O   0  0  0  0  0  0  0  0  0  0  0  0
    8.8050    0.7716    0.0000 O   0  0  0  0  0  0  0  0  0  0  0  0
    2.4923   -2.5902    0.0000 O   0  0  0  0  0  0  0  0  0  0  0  0
    3.9999   -3.4429    0.0000 O   0  0  0  0  0  0  0  0  0  0  0  0
    6.6961   -0.0992    0.0000 C   0  0  1  0  0  0  0  0  0  0  0  0
    5.8276    0.3964    0.0000 C   0  0  2  0  0  0  0  0  0  0  0  0
    4.9201   -0.1149    0.0000 C   0  0  1  0  0  0  0  0  0  0  0  0
    7.3477    2.0512    0.0000 C   0  0  1  0  0  0  0  0  0  0  0  0
    6.6716    1.0821    0.0000 C   0  0  0  0  0  0  0  0  0  0  0  0
    4.9173   -1.1566    0.0000 C   0  0  2  0  0  0  0  0  0  0  0  0
    7.6251    0.2707    0.0000 C   0  0  0  0  0  0  0  0  0  0  0  0
    6.7173   -1.1406    0.0000 C   0  0  2  0  0  0  0  0  0  0  0  0
    7.9151    1.2278    0.0000 C   0  0  1  0  0  0  0  0  0  0  0  0
    5.6736    1.3845    0.0000 C   0  0  0  0  0  0  0  0  0  0  0  0
    5.8219   -1.6729    0.0000 C   0  0  0  0  0  0  0  0  0  0  0  0
    6.3501    2.1210    0.0000 C   0  0  0  0  0  0  0  0  0  0  0  0
    3.9846   -1.7109    0.0000 C   0  0  2  0  0  0  0  0  0  0  0  0
    3.9905    0.4445    0.0000 C   0  0  0  0  0  0  0  0  0  0  0  0
    4.5806    0.8257    0.0000 C   0  0  0  0  0  0  0  0  0  0  0  0
    3.0423   -1.1731    0.0000 C   0  0  0  0  0  0  0  0  0  0  0  0
    3.0452   -0.0881    0.0000 C   0  0  0  0  0  0  0  0  0  0  0  0
    8.6240    1.9331    0.0000 C   0  0  0  0  0  0  0  0  0  0  0  0
    4.4922   -2.5725    0.0000 C   0  0  0  0  0  0  0  0  0  0  0  0
    3.4923   -2.5814    0.0000 C   0  0  0  0  0  0  0  0  0  0  0  0
    2.0000   -3.4606    0.0000 C   0  0  0  0  0  0  0  0  0  0  0  0
    5.0893    0.8178    0.0000 H   0  0  0  0  0  0  0  0  0  0  0  0
    6.2974    1.5764    0.0000 H   0  0  0  0  0  0  0  0  0  0  0  0
    6.0859    0.8787    0.0000 H   0  0  0  0  0  0  0  0  0  0  0  0
    4.9248   -2.0065    0.0000 H   0  0  0  0  0  0  0  0  0  0  0  0
    7.7206   -0.3419    0.0000 H   0  0  0  0  0  0  0  0  0  0  0  0
    8.2436    0.2275    0.0000 H   0  0  0  0  0  0  0  0  0  0  0  0
    6.7264   -1.7606    0.0000 H   0  0  0  0  0  0  0  0  0  0  0  0
    5.3218    1.8950    0.0000 H   0  0  0  0  0  0  0  0  0  0  0  0
    5.0976    1.1551    0.0000 H   0  0  0  0  0  0  0  0  0  0  0  0
    5.4270   -2.1508    0.0000 H   0  0  0  0  0  0  0  0  0  0  0  0
    6.2253   -2.1438    0.0000 H   0  0  0  0  0  0  0  0  0  0  0  0
    6.5299    2.7143    0.0000 H   0  0  0  0  0  0  0  0  0  0  0  0
    5.8116    2.4283    0.0000 H   0  0  0  0  0  0  0  0  0  0  0  0
    4.3964    0.9132    0.0000 H   0  0  0  0  0  0  0  0  0  0  0  0
    3.5982    0.9246    0.0000 H   0  0  0  0  0  0  0  0  0  0  0  0
    5.1638    1.0361    0.0000 H   0  0  0  0  0  0  0  0  0  0  0  0
    4.3702    1.4089    0.0000 H   0  0  0  0  0  0  0  0  0  0  0  0
    3.9975    0.6152    0.0000 H   0  0  0  0  0  0  0  0  0  0  0  0
    2.4317   -1.0654    0.0000 H   0  0  0  0  0  0  0  0  0  0  0  0
    2.8316   -1.7563    0.0000 H   0  0  0  0  0  0  0  0  0  0  0  0
    2.8378    0.4961    0.0000 H   0  0  0  0  0  0  0  0  0  0  0  0
    2.4341   -0.1926    0.0000 H   0  0  0  0  0  0  0  0  0  0  0  0
    9.0613    1.4936    0.0000 H   0  0  0  0  0  0  0  0  0  0  0  0
    9.0635    2.3704    0.0000 H   0  0  0  0  0  0  0  0  0  0  0  0
    8.1867    2.3726    0.0000 H   0  0  0  0  0  0  0  0  0  0  0  0
    7.2137    3.4606    0.0000 H   0  0  0  0  0  0  0  0  0  0  0  0
    3.9581   -2.8872    0.0000 H   0  0  0  0  0  0  0  0  0  0  0  0
    4.8070   -3.1067    0.0000 H   0  0  0  0  0  0  0  0  0  0  0  0
    5.0264   -2.2578    0.0000 H   0  0  0  0  0  0  0  0  0  0  0  0
    7.6018   -2.2462    0.0000 H   0  0  0  0  0  0  0  0  0  0  0  0
    9.3258    1.1079    0.0000 H   0  0  0  0  0  0  0  0  0  0  0  0
    1.4603   -3.1554    0.0000 H   0  0  0  0  0  0  0  0  0  0  0  0
    1.6948   -4.0003    0.0000 H   0  0  0  0  0  0  0  0  0  0  0  0
    2.5397   -3.7658    0.0000 H   0  0  0  0  0  0  0  0  0  0  0  0
  9  1  1  6  0  0  0
  1 52  1  0  0  0  0
 13  2  1  1  0  0  0
  2 56  1  0  0  0  0
 14  3  1  6  0  0  0
  3 57  1  0  0  0  0
  4 25  1  0  0  0  0
  4 26  1  0  0  0  0
  5 25  2  0  0  0  0
  6  7  1  0  0  0  0
  6 10  1  0  0  0  0
  6 12  1  1  0  0  0
  6 13  1  0  0  0  0
  7  8  1  0  0  0  0
  7 15  1  0  0  0  0
  7 27  1  1  0  0  0
  8 11  1  0  0  0  0
  8 19  1  0  0  0  0
  8 20  1  6  0  0  0
  9 10  1  0  0  0  0
  9 14  1  0  0  0  0
  9 17  1  0  0  0  0
 10 28  1  0  0  0  0
 10 29  1  0  0  0  0
 11 16  1  0  0  0  0
 11 18  1  0  0  0  0
 11 30  1  1  0  0  0
 12 14  1  0  0  0  0
 12 31  1  0  0  0  0
 12 32  1  0  0  0  0
 13 16  1  0  0  0  0
 13 33  1  0  0  0  0
 14 23  1  0  0  0  0
 15 17  1  0  0  0  0
 15 34  1  0  0  0  0
 15 35  1  0  0  0  0
 16 36  1  0  0  0  0
 16 37  1  0  0  0  0
 17 38  1  0  0  0  0
 17 39  1  0  0  0  0
 18 21  1  0  0  0  0
 18 24  1  1  0  0  0
 18 25  1  0  0  0  0
 19 22  1  0  0  0  0
 19 40  1  0  0  0  0
 19 41  1  0  0  0  0
 20 42  1  0  0  0  0
 20 43  1  0  0  0  0
 20 44  1  0  0  0  0
 21 22  1  0  0  0  0
 21 45  1  0  0  0  0
 21 46  1  0  0  0  0
 22 47  1  0  0  0  0
 22 48  1  0  0  0  0
 23 49  1  0  0  0  0
 23 50  1  0  0  0  0
 23 51  1  0  0  0  0
 24 53  1  0  0  0  0
 24 54  1  0  0  0  0
 24 55  1  0  0  0  0
 26 58  1  0  0  0  0
 26 59  1  0  0  0  0
 26 60  1  0  0  0  0
M  END
> <PUBCHEM_COMPOUND_CID>
101589157

> <PUBCHEM_COMPOUND_CANONICALIZED>
1

> <PUBCHEM_CACTVS_COMPLEXITY>
636

> <PUBCHEM_CACTVS_HBOND_ACCEPTOR>
5

> <PUBCHEM_CACTVS_HBOND_DONOR>
3

> <PUBCHEM_CACTVS_ROTATABLE_BOND>
2

> <PUBCHEM_CACTVS_SUBSKEYS>
AAADcfB4OAAAAAAAAAAAAAAAAAAAAYAAAAAwYMAABgAAAADAAAAAGgAACAAAD1SggAICCAAABgAIAACQCAAAAAAAAAAAAAEAAAABEBIAAAAAQAAEAAABAAHI7PzPgAAAAAAAAADAAAYAADAAAYAADCAAAA==

> <PUBCHEM_IUPAC_OPENEYE_NAME>
methyl (1S,2S,4S,5R,9S,10S,13S,14R)-2,13,14-trihydroxy-5,9,14-trimethyl-tetracyclo[11.2.1.01,10.04,9]hexadecane-5-carboxylate

> <PUBCHEM_IUPAC_CAS_NAME>
(1S,2S,4S,5R,9S,10S,13S,14R)-2,13,14-trihydroxy-5,9,14-trimethyl-5-tetracyclo[11.2.1.01,10.04,9]hexadecanecarboxylic acid methyl ester

> <PUBCHEM_IUPAC_NAME_MARKUP>
methyl (1<I>S</I>,2<I>S</I>,4<I>S</I>,5<I>R</I>,9<I>S</I>,10<I>S</I>,13<I>S</I>,14<I>R</I>)-2,13,14-trihydroxy-5,9,14-trimethyltetracyclo[11.2.1.0<SUP>1,10</SUP>.0<SUP>4,9</SUP>]hexadecane-5-carboxylate

> <PUBCHEM_IUPAC_NAME>
methyl (1S,2S,4S,5R,9S,10S,13S,14R)-2,13,14-trihydroxy-5,9,14-trimethyltetracyclo[11.2.1.01,10.04,9]hexadecane-5-carboxylate

> <PUBCHEM_IUPAC_SYSTEMATIC_NAME>
methyl (1S,2S,4S,5R,9S,10S,13S,14R)-5,9,14-trimethyl-2,13,14-tris(oxidanyl)tetracyclo[11.2.1.01,10.04,9]hexadecane-5-carboxylate

> <PUBCHEM_IUPAC_TRADITIONAL_NAME>
(1S,2S,4S,5R,9S,10S,13S,14R)-2,13,14-trihydroxy-5,9,14-trimethyl-tetracyclo[11.2.1.01,10.04,9]hexadecane-5-carboxylic acid methyl ester

> <PUBCHEM_IUPAC_INCHI>
InChI=1S/C21H34O5/c1-17-7-5-8-18(2,16(23)26-4)14(17)10-15(22)20-11-19(3,24)21(25,12-20)9-6-13(17)20/h13-15,22,24-25H,5-12H2,1-4H3/t13-,14-,15-,17-,18+,19+,20-,21-/m0/s1

> <PUBCHEM_IUPAC_INCHIKEY>
QPYYTKFTFPBCMB-APEBOIFYSA-N

> <PUBCHEM_XLOGP3_AA>
2.2

> <PUBCHEM_EXACT_MASS>
366.24062418

> <PUBCHEM_MOLECULAR_FORMULA>
C21H34O5

> <PUBCHEM_MOLECULAR_WEIGHT>
366.5

> <PUBCHEM_OPENEYE_CAN_SMILES>
CC12CCCC(C1CC(C34C2CCC(C3)(C(C4)(C)O)O)O)(C)C(=O)OC

> <PUBCHEM_OPENEYE_ISO_SMILES>
C[C@@]12CCC[C@@]([C@H]1C[C@@H]([C@]34[C@H]2CC[C@](C3)([C@](C4)(C)O)O)O)(C)C(=O)OC

> <PUBCHEM_CACTVS_TPSA>
87

> <PUBCHEM_MONOISOTOPIC_WEIGHT>
366.24062418

> <PUBCHEM_TOTAL_CHARGE>
0

> <PUBCHEM_HEAVY_ATOM_COUNT>
26

> <PUBCHEM_ATOM_DEF_STEREO_COUNT>
8

> <PUBCHEM_ATOM_UDEF_STEREO_COUNT>
0

> <PUBCHEM_BOND_DEF_STEREO_COUNT>
0

> <PUBCHEM_BOND_UDEF_STEREO_COUNT>
0

> <PUBCHEM_ISOTOPIC_ATOM_COUNT>
0

> <PUBCHEM_COMPONENT_COUNT>
1

> <PUBCHEM_CACTVS_TAUTO_COUNT>
-1

> <PUBCHEM_COORDINATE_TYPE>
1
5
255

> <PUBCHEM_BONDANNOTATIONS>
9  1  6
11  30  5
18  24  5
13  2  5
14  3  6
6  12  5
7  27  5
8  20  6

$$$$
