 
  -OEChem-10192104272D

 66 69  0     1  0  0  0  0  0999 V2000
    6.8671   -0.8185    0.0000 O   0  0  0  0  0  0  0  0  0  0  0  0
    6.0010    0.6815    0.0000 O   0  0  0  0  0  0  0  0  0  0  0  0
    5.1350   -0.8185    0.0000 O   0  0  0  0  0  0  0  0  0  0  0  0
    6.8671   -2.8185    0.0000 O   0  0  0  0  0  0  0  0  0  0  0  0
    5.1350   -3.8185    0.0000 O   0  0  0  0  0  0  0  0  0  0  0  0
    3.4030   -2.8185    0.0000 O   0  0  0  0  0  0  0  0  0  0  0  0
    9.9685   -0.7800    0.0000 O   0  0  0  0  0  0  0  0  0  0  0  0
    2.5369   -1.3185    0.0000 O   0  0  0  0  0  0  0  0  0  0  0  0
    6.0010    3.6815    0.0000 O   0  0  0  0  0  0  0  0  0  0  0  0
    7.7331    3.6815    0.0000 O   0  0  0  0  0  0  0  0  0  0  0  0
    9.6113   -2.4748    0.0000 O   0  0  0  0  0  0  0  0  0  0  0  0
   14.8610   -1.8111    0.0000 O   0  0  0  0  0  0  0  0  0  0  0  0
   15.4823   -3.7121    0.0000 O   0  0  0  0  0  0  0  0  0  0  0  0
    7.7331    0.6815    0.0000 C   0  0  2  0  0  0  0  0  0  0  0  0
    7.7331    1.6815    0.0000 C   0  0  2  0  0  0  0  0  0  0  0  0
    6.8671    0.1815    0.0000 C   0  0  2  0  0  0  0  0  0  0  0  0
    8.6793    1.9862    0.0000 C   0  0  0  0  0  0  0  0  0  0  0  0
    8.6793    0.3767    0.0000 C   0  0  0  0  0  0  0  0  0  0  0  0
    9.2629    1.1815    0.0000 C   0  0  0  0  0  0  0  0  0  0  0  0
    6.8671    2.1815    0.0000 C   0  0  0  0  0  0  0  0  0  0  0  0
    6.0010   -1.3185    0.0000 C   0  0  2  0  0  0  0  0  0  0  0  0
    6.0010   -2.3185    0.0000 C   0  0  1  0  0  0  0  0  0  0  0  0
    5.1350   -2.8185    0.0000 C   0  0  2  0  0  0  0  0  0  0  0  0
    4.2690   -2.3185    0.0000 C   0  0  1  0  0  0  0  0  0  0  0  0
    4.2690   -1.3185    0.0000 C   0  0  1  0  0  0  0  0  0  0  0  0
    8.9900   -0.5738    0.0000 C   0  0  0  0  0  0  0  0  0  0  0  0
    6.0010    1.6815    0.0000 C   0  0  0  0  0  0  0  0  0  0  0  0
    6.8671    3.1815    0.0000 C   0  0  0  0  0  0  0  0  0  0  0  0
    3.4030   -0.8185    0.0000 C   0  0  0  0  0  0  0  0  0  0  0  0
   10.2791   -1.7305    0.0000 C   0  0  0  0  0  0  0  0  0  0  0  0
   11.2576   -1.9368    0.0000 C   0  0  0  0  0  0  0  0  0  0  0  0
   11.5683   -2.8873    0.0000 C   0  0  0  0  0  0  0  0  0  0  0  0
   12.5468   -3.0935    0.0000 C   0  0  0  0  0  0  0  0  0  0  0  0
   13.2147   -2.3492    0.0000 C   0  0  0  0  0  0  0  0  0  0  0  0
   12.8575   -4.0440    0.0000 C   0  0  0  0  0  0  0  0  0  0  0  0
   14.1932   -2.5554    0.0000 C   0  0  0  0  0  0  0  0  0  0  0  0
   13.8360   -4.2502    0.0000 C   0  0  0  0  0  0  0  0  0  0  0  0
   14.5038   -3.5059    0.0000 C   0  0  0  0  0  0  0  0  0  0  0  0
    7.8230   -0.1638    0.0000 H   0  0  0  0  0  0  0  0  0  0  0  0
    7.8230    2.5267    0.0000 H   0  0  0  0  0  0  0  0  0  0  0  0
    7.4040   -0.1285    0.0000 H   0  0  0  0  0  0  0  0  0  0  0  0
    9.2167    2.2954    0.0000 H   0  0  0  0  0  0  0  0  0  0  0  0
    8.4283    2.5531    0.0000 H   0  0  0  0  0  0  0  0  0  0  0  0
    9.8829    1.1815    0.0000 H   0  0  0  0  0  0  0  0  0  0  0  0
    6.0010   -0.6985    0.0000 H   0  0  0  0  0  0  0  0  0  0  0  0
    6.0010   -2.9385    0.0000 H   0  0  0  0  0  0  0  0  0  0  0  0
    4.5981   -3.1285    0.0000 H   0  0  0  0  0  0  0  0  0  0  0  0
    4.2690   -2.9385    0.0000 H   0  0  0  0  0  0  0  0  0  0  0  0
    4.2690   -0.6985    0.0000 H   0  0  0  0  0  0  0  0  0  0  0  0
    8.3762   -0.6611    0.0000 H   0  0  0  0  0  0  0  0  0  0  0  0
    8.9694   -1.1934    0.0000 H   0  0  0  0  0  0  0  0  0  0  0  0
    5.4641    1.9915    0.0000 H   0  0  0  0  0  0  0  0  0  0  0  0
    3.8015   -0.3436    0.0000 H   0  0  0  0  0  0  0  0  0  0  0  0
    3.0044   -0.3436    0.0000 H   0  0  0  0  0  0  0  0  0  0  0  0
    6.8671   -3.4385    0.0000 H   0  0  0  0  0  0  0  0  0  0  0  0
    4.5981   -4.1285    0.0000 H   0  0  0  0  0  0  0  0  0  0  0  0
    3.4030   -3.4385    0.0000 H   0  0  0  0  0  0  0  0  0  0  0  0
    2.0000   -1.0085    0.0000 H   0  0  0  0  0  0  0  0  0  0  0  0
    6.0010    4.3015    0.0000 H   0  0  0  0  0  0  0  0  0  0  0  0
   11.6717   -1.4753    0.0000 H   0  0  0  0  0  0  0  0  0  0  0  0
   11.1542   -3.3487    0.0000 H   0  0  0  0  0  0  0  0  0  0  0  0
   13.0220   -1.7599    0.0000 H   0  0  0  0  0  0  0  0  0  0  0  0
   12.4434   -4.5055    0.0000 H   0  0  0  0  0  0  0  0  0  0  0  0
   14.0286   -4.8396    0.0000 H   0  0  0  0  0  0  0  0  0  0  0  0
   15.4677   -1.9390    0.0000 H   0  0  0  0  0  0  0  0  0  0  0  0
   15.6749   -4.3015    0.0000 H   0  0  0  0  0  0  0  0  0  0  0  0
 16  1  1  6  0  0  0
 21  1  1  1  0  0  0
  2 16  1  0  0  0  0
  2 27  1  0  0  0  0
  3 21  1  0  0  0  0
  3 25  1  0  0  0  0
 22  4  1  6  0  0  0
  4 55  1  0  0  0  0
 23  5  1  1  0  0  0
  5 56  1  0  0  0  0
 24  6  1  6  0  0  0
  6 57  1  0  0  0  0
  7 26  1  0  0  0  0
  7 30  1  0  0  0  0
  8 29  1  0  0  0  0
  8 58  1  0  0  0  0
  9 28  1  0  0  0  0
  9 59  1  0  0  0  0
 10 28  2  0  0  0  0
 11 30  2  0  0  0  0
 12 36  1  0  0  0  0
 12 65  1  0  0  0  0
 13 38  1  0  0  0  0
 13 66  1  0  0  0  0
 14 15  1  0  0  0  0
 14 16  1  0  0  0  0
 14 18  1  0  0  0  0
 14 39  1  6  0  0  0
 15 17  1  0  0  0  0
 15 20  1  0  0  0  0
 15 40  1  6  0  0  0
 16 41  1  0  0  0  0
 17 19  1  0  0  0  0
 17 42  1  0  0  0  0
 17 43  1  0  0  0  0
 18 19  2  0  0  0  0
 18 26  1  0  0  0  0
 19 44  1  0  0  0  0
 20 27  2  0  0  0  0
 20 28  1  0  0  0  0
 21 22  1  0  0  0  0
 21 45  1  0  0  0  0
 22 23  1  0  0  0  0
 22 46  1  0  0  0  0
 23 24  1  0  0  0  0
 23 47  1  0  0  0  0
 24 25  1  0  0  0  0
 24 48  1  0  0  0  0
 25 29  1  1  0  0  0
 25 49  1  0  0  0  0
 26 50  1  0  0  0  0
 26 51  1  0  0  0  0
 27 52  1  0  0  0  0
 29 53  1  0  0  0  0
 29 54  1  0  0  0  0
 30 31  1  0  0  0  0
 31 32  2  0  0  0  0
 31 60  1  0  0  0  0
 32 33  1  0  0  0  0
 32 61  1  0  0  0  0
 33 34  2  0  0  0  0
 33 35  1  0  0  0  0
 34 36  1  0  0  0  0
 34 62  1  0  0  0  0
 35 37  2  0  0  0  0
 35 63  1  0  0  0  0
 36 38  2  0  0  0  0
 37 38  1  0  0  0  0
 37 64  1  0  0  0  0
M  END
> <PUBCHEM_COMPOUND_CID>
101098644

> <PUBCHEM_COMPOUND_CANONICALIZED>
1

> <PUBCHEM_CACTVS_COMPLEXITY>
961

> <PUBCHEM_CACTVS_HBOND_ACCEPTOR>
13

> <PUBCHEM_CACTVS_HBOND_DONOR>
7

> <PUBCHEM_CACTVS_ROTATABLE_BOND>
9

> <PUBCHEM_CACTVS_SUBSKEYS>
AAADceB4PAAAAAAAAAAAAAAAAAAAAQAAAAA0QIAAAAAAAEABAAAAGgAACAAADRSwmAMwDoAABgCIAiDSCAACCAAgIAAIiAEGiMgZNjKCMRKicAElwBEPuYfI7BwOoAABAAAAQABAAAIAAACAAAAAAAAAAA==

> <PUBCHEM_IUPAC_OPENEYE_NAME>
(1S,4aS,7aS)-7-[[(E)-3-(3,4-dihydroxyphenyl)prop-2-enoyl]oxymethyl]-1-[(2S,3R,4S,5S,6R)-3,4,5-trihydroxy-6-(hydroxymethyl)tetrahydropyran-2-yl]oxy-1,4a,5,7a-tetrahydrocyclopenta[c]pyran-4-carboxylic acid

> <PUBCHEM_IUPAC_CAS_NAME>
(1S,4aS,7aS)-7-[[(E)-3-(3,4-dihydroxyphenyl)-1-oxoprop-2-enoxy]methyl]-1-[[(2S,3R,4S,5S,6R)-3,4,5-trihydroxy-6-(hydroxymethyl)-2-oxanyl]oxy]-1,4a,5,7a-tetrahydrocyclopenta[c]pyran-4-carboxylic acid

> <PUBCHEM_IUPAC_NAME_MARKUP>
(1<I>S</I>,4<I>a</I><I>S</I>,7<I>a</I><I>S</I>)-7-[[(<I>E</I>)-3-(3,4-dihydroxyphenyl)prop-2-enoyl]oxymethyl]-1-[(2<I>S</I>,3<I>R</I>,4<I>S</I>,5<I>S</I>,6<I>R</I>)-3,4,5-trihydroxy-6-(hydroxymethyl)oxan-2-yl]oxy-1,4<I>a</I>,5,7<I>a</I>-tetrahydrocyclopenta[c]pyran-4-carboxylic acid

> <PUBCHEM_IUPAC_NAME>
(1S,4aS,7aS)-7-[[(E)-3-(3,4-dihydroxyphenyl)prop-2-enoyl]oxymethyl]-1-[(2S,3R,4S,5S,6R)-3,4,5-trihydroxy-6-(hydroxymethyl)oxan-2-yl]oxy-1,4a,5,7a-tetrahydrocyclopenta[c]pyran-4-carboxylic acid

> <PUBCHEM_IUPAC_SYSTEMATIC_NAME>
(1S,4aS,7aS)-7-[[(E)-3-[3,4-bis(oxidanyl)phenyl]prop-2-enoyl]oxymethyl]-1-[(2S,3R,4S,5S,6R)-6-(hydroxymethyl)-3,4,5-tris(oxidanyl)oxan-2-yl]oxy-1,4a,5,7a-tetrahydrocyclopenta[c]pyran-4-carboxylic acid

> <PUBCHEM_IUPAC_TRADITIONAL_NAME>
(1S,4aS,7aS)-7-[[(E)-3-(3,4-dihydroxyphenyl)acryloyl]oxymethyl]-1-[(2S,3R,4S,5S,6R)-3,4,5-trihydroxy-6-methylol-tetrahydropyran-2-yl]oxy-1,4a,5,7a-tetrahydrocyclopenta[c]pyran-4-carboxylic acid

> <PUBCHEM_IUPAC_INCHI>
InChI=1S/C25H28O13/c26-8-17-20(30)21(31)22(32)25(37-17)38-24-19-12(3-4-13(19)14(10-36-24)23(33)34)9-35-18(29)6-2-11-1-5-15(27)16(28)7-11/h1-3,5-7,10,13,17,19-22,24-28,30-32H,4,8-9H2,(H,33,34)/b6-2+/t13-,17-,19-,20-,21+,22-,24+,25+/m1/s1

> <PUBCHEM_IUPAC_INCHIKEY>
RMHFGHOPVQFOIT-SRCSRSIRSA-N

> <PUBCHEM_XLOGP3_AA>
-0.7

> <PUBCHEM_EXACT_MASS>
536.15299094

> <PUBCHEM_MOLECULAR_FORMULA>
C25H28O13

> <PUBCHEM_MOLECULAR_WEIGHT>
536.5

> <PUBCHEM_OPENEYE_CAN_SMILES>
C1C=C(C2C1C(=COC2OC3C(C(C(C(O3)CO)O)O)O)C(=O)O)COC(=O)C=CC4=CC(=C(C=C4)O)O

> <PUBCHEM_OPENEYE_ISO_SMILES>
C1C=C([C@@H]2[C@H]1C(=CO[C@H]2O[C@H]3[C@@H]([C@H]([C@@H]([C@H](O3)CO)O)O)O)C(=O)O)COC(=O)/C=C/C4=CC(=C(C=C4)O)O

> <PUBCHEM_CACTVS_TPSA>
213

> <PUBCHEM_MONOISOTOPIC_WEIGHT>
536.15299094

> <PUBCHEM_TOTAL_CHARGE>
0

> <PUBCHEM_HEAVY_ATOM_COUNT>
38

> <PUBCHEM_ATOM_DEF_STEREO_COUNT>
8

> <PUBCHEM_ATOM_UDEF_STEREO_COUNT>
0

> <PUBCHEM_BOND_DEF_STEREO_COUNT>
1

> <PUBCHEM_BOND_UDEF_STEREO_COUNT>
0

> <PUBCHEM_ISOTOPIC_ATOM_COUNT>
0

> <PUBCHEM_COMPONENT_COUNT>
1

> <PUBCHEM_CACTVS_TAUTO_COUNT>
-1

> <PUBCHEM_COORDINATE_TYPE>
1
5
255

> <PUBCHEM_BONDANNOTATIONS>
16  1  6
21  1  5
14  39  6
15  40  6
25  29  5
33  34  8
33  35  8
34  36  8
35  37  8
36  38  8
37  38  8
22  4  6
23  5  5
24  6  6

$$$$
