 
  -OEChem-10192104372D

 55 57  0     1  0  0  0  0  0999 V2000
    5.1350   -0.7927    0.0000 O   0  0  0  0  0  0  0  0  0  0  0  0
    6.8671    1.2073    0.0000 O   0  0  0  0  0  0  0  0  0  0  0  0
    4.2690    0.7073    0.0000 O   0  0  0  0  0  0  0  0  0  0  0  0
    4.2690    2.7073    0.0000 O   0  0  0  0  0  0  0  0  0  0  0  0
    2.5369    0.7073    0.0000 O   0  0  0  0  0  0  0  0  0  0  0  0
    8.6155   -4.8273    0.0000 O   0  0  0  0  0  0  0  0  0  0  0  0
   10.3972   -1.7686    0.0000 O   0  0  0  0  0  0  0  0  0  0  0  0
    3.4030    4.2073    0.0000 O   0  0  0  0  0  0  0  0  0  0  0  0
    6.8671   -1.7927    0.0000 N   0  0  0  0  0  0  0  0  0  0  0  0
    6.8671   -3.7927    0.0000 N   0  0  0  0  0  0  0  0  0  0  0  0
    8.6270   -1.7580    0.0000 N   0  0  0  0  0  0  0  0  0  0  0  0
    9.5331   -3.3135    0.0000 N   0  0  0  0  0  0  0  0  0  0  0  0
    6.0010   -0.2927    0.0000 C   0  0  2  0  0  0  0  0  0  0  0  0
    6.0010    0.7073    0.0000 C   0  0  1  0  0  0  0  0  0  0  0  0
    6.8671   -0.7927    0.0000 C   0  0  0  0  0  0  0  0  0  0  0  0
    5.1350    1.2073    0.0000 C   0  0  1  0  0  0  0  0  0  0  0  0
    6.0010   -2.2927    0.0000 C   0  0  0  0  0  0  0  0  0  0  0  0
    7.7331   -2.2927    0.0000 C   0  0  0  0  0  0  0  0  0  0  0  0
    5.1350    2.2073    0.0000 C   0  0  0  0  0  0  0  0  0  0  0  0
    6.0010   -3.2927    0.0000 C   0  0  0  0  0  0  0  0  0  0  0  0
    5.1071   -1.7580    0.0000 C   0  0  0  0  0  0  0  0  0  0  0  0
    7.7331   -3.2927    0.0000 C   0  0  0  0  0  0  0  0  0  0  0  0
    4.2010   -2.2719    0.0000 C   0  0  0  0  0  0  0  0  0  0  0  0
    5.1071   -3.8274    0.0000 C   0  0  0  0  0  0  0  0  0  0  0  0
    4.2010   -3.3135    0.0000 C   0  0  0  0  0  0  0  0  0  0  0  0
    8.6270   -3.8274    0.0000 C   0  0  0  0  0  0  0  0  0  0  0  0
    3.4030    1.2073    0.0000 C   0  0  0  0  0  0  0  0  0  0  0  0
    3.3369   -1.7686    0.0000 C   0  0  0  0  0  0  0  0  0  0  0  0
    3.3369   -3.8168    0.0000 C   0  0  0  0  0  0  0  0  0  0  0  0
    9.5331   -2.2719    0.0000 C   0  0  0  0  0  0  0  0  0  0  0  0
    4.2690    3.7073    0.0000 C   0  0  0  0  0  0  0  0  0  0  0  0
    5.4641    0.0173    0.0000 H   0  0  0  0  0  0  0  0  0  0  0  0
    6.5380    0.3973    0.0000 H   0  0  0  0  0  0  0  0  0  0  0  0
    7.4776   -0.9004    0.0000 H   0  0  0  0  0  0  0  0  0  0  0  0
    7.0791   -0.2101    0.0000 H   0  0  0  0  0  0  0  0  0  0  0  0
    5.1350    0.5873    0.0000 H   0  0  0  0  0  0  0  0  0  0  0  0
    5.7456    2.0996    0.0000 H   0  0  0  0  0  0  0  0  0  0  0  0
    5.3471    2.7899    0.0000 H   0  0  0  0  0  0  0  0  0  0  0  0
    5.1143   -1.1381    0.0000 H   0  0  0  0  0  0  0  0  0  0  0  0
    4.5981   -0.4827    0.0000 H   0  0  0  0  0  0  0  0  0  0  0  0
    6.8671    1.8273    0.0000 H   0  0  0  0  0  0  0  0  0  0  0  0
    5.1143   -4.4473    0.0000 H   0  0  0  0  0  0  0  0  0  0  0  0
    3.8015    1.6822    0.0000 H   0  0  0  0  0  0  0  0  0  0  0  0
    3.0044    1.6822    0.0000 H   0  0  0  0  0  0  0  0  0  0  0  0
    3.6490   -1.2328    0.0000 H   0  0  0  0  0  0  0  0  0  0  0  0
    2.8012   -1.4565    0.0000 H   0  0  0  0  0  0  0  0  0  0  0  0
    3.0249   -2.3043    0.0000 H   0  0  0  0  0  0  0  0  0  0  0  0
    3.0249   -3.2811    0.0000 H   0  0  0  0  0  0  0  0  0  0  0  0
    2.8012   -4.1289    0.0000 H   0  0  0  0  0  0  0  0  0  0  0  0
    3.6490   -4.3526    0.0000 H   0  0  0  0  0  0  0  0  0  0  0  0
   10.0688   -3.6256    0.0000 H   0  0  0  0  0  0  0  0  0  0  0  0
    4.8796    3.5996    0.0000 H   0  0  0  0  0  0  0  0  0  0  0  0
    4.4810    4.2899    0.0000 H   0  0  0  0  0  0  0  0  0  0  0  0
    2.0000    1.0173    0.0000 H   0  0  0  0  0  0  0  0  0  0  0  0
    3.4030    4.8273    0.0000 H   0  0  0  0  0  0  0  0  0  0  0  0
 13  1  1  6  0  0  0
  1 40  1  0  0  0  0
 14  2  1  1  0  0  0
  2 41  1  0  0  0  0
 16  3  1  6  0  0  0
  3 27  1  0  0  0  0
  4 19  1  0  0  0  0
  4 31  1  0  0  0  0
  5 27  1  0  0  0  0
  5 54  1  0  0  0  0
  6 26  2  0  0  0  0
  7 30  2  0  0  0  0
  8 31  1  0  0  0  0
  8 55  1  0  0  0  0
  9 15  1  0  0  0  0
  9 17  1  0  0  0  0
  9 18  1  0  0  0  0
 10 20  1  0  0  0  0
 10 22  2  0  0  0  0
 11 18  2  0  0  0  0
 11 30  1  0  0  0  0
 12 26  1  0  0  0  0
 12 30  1  0  0  0  0
 12 51  1  0  0  0  0
 13 14  1  0  0  0  0
 13 15  1  0  0  0  0
 13 32  1  0  0  0  0
 14 16  1  0  0  0  0
 14 33  1  0  0  0  0
 15 34  1  0  0  0  0
 15 35  1  0  0  0  0
 16 19  1  0  0  0  0
 16 36  1  0  0  0  0
 17 20  2  0  0  0  0
 17 21  1  0  0  0  0
 18 22  1  0  0  0  0
 19 37  1  0  0  0  0
 19 38  1  0  0  0  0
 20 24  1  0  0  0  0
 21 23  2  0  0  0  0
 21 39  1  0  0  0  0
 22 26  1  0  0  0  0
 23 25  1  0  0  0  0
 23 28  1  0  0  0  0
 24 25  2  0  0  0  0
 24 42  1  0  0  0  0
 25 29  1  0  0  0  0
 27 43  1  0  0  0  0
 27 44  1  0  0  0  0
 28 45  1  0  0  0  0
 28 46  1  0  0  0  0
 28 47  1  0  0  0  0
 29 48  1  0  0  0  0
 29 49  1  0  0  0  0
 29 50  1  0  0  0  0
 31 52  1  0  0  0  0
 31 53  1  0  0  0  0
M  END
> <PUBCHEM_COMPOUND_CID>
133082572

> <PUBCHEM_COMPOUND_CANONICALIZED>
1

> <PUBCHEM_CACTVS_COMPLEXITY>
744

> <PUBCHEM_CACTVS_HBOND_ACCEPTOR>
9

> <PUBCHEM_CACTVS_HBOND_DONOR>
5

> <PUBCHEM_CACTVS_ROTATABLE_BOND>
9

> <PUBCHEM_CACTVS_SUBSKEYS>
AAADceB7vAAAAAAAAAAAAAAAAAAAAAAAAAAwQIAAAAAAAACBAAAAHgAQCAAADBzhmAczyIPABgCoAydydACCAAEhAgABiAEodIibcCrA2ZGUYAhnhSLfyAfwkIIOiAAAQAAQACAQAACAACAAQAAAAAAAAA==

> <PUBCHEM_IUPAC_OPENEYE_NAME>
10-[(2S,3S,4R)-2,3-dihydroxy-4,5-bis(hydroxymethoxy)pentyl]-7,8-dimethyl-benzo[g]pteridine-2,4-dione

> <PUBCHEM_IUPAC_CAS_NAME>
10-[(2S,3S,4R)-2,3-dihydroxy-4,5-bis(hydroxymethoxy)pentyl]-7,8-dimethylbenzo[g]pteridine-2,4-dione

> <PUBCHEM_IUPAC_NAME_MARKUP>
10-[(2<I>S</I>,3<I>S</I>,4<I>R</I>)-2,3-dihydroxy-4,5-bis(hydroxymethoxy)pentyl]-7,8-dimethylbenzo[g]pteridine-2,4-dione

> <PUBCHEM_IUPAC_NAME>
10-[(2S,3S,4R)-2,3-dihydroxy-4,5-bis(hydroxymethoxy)pentyl]-7,8-dimethylbenzo[g]pteridine-2,4-dione

> <PUBCHEM_IUPAC_SYSTEMATIC_NAME>
10-[(2S,3S,4R)-4,5-bis(hydroxymethyloxy)-2,3-bis(oxidanyl)pentyl]-7,8-dimethyl-benzo[g]pteridine-2,4-dione

> <PUBCHEM_IUPAC_TRADITIONAL_NAME>
10-[(2S,3S,4R)-2,3-dihydroxy-4,5-dimethyloloxy-pentyl]-7,8-dimethyl-benzo[g]pteridine-2,4-quinone

> <PUBCHEM_IUPAC_INCHI>
InChI=1S/C19H24N4O8/c1-9-3-11-12(4-10(9)2)23(17-15(20-11)18(28)22-19(29)21-17)5-13(26)16(27)14(31-8-25)6-30-7-24/h3-4,13-14,16,24-27H,5-8H2,1-2H3,(H,22,28,29)/t13-,14+,16-/m0/s1

> <PUBCHEM_IUPAC_INCHIKEY>
VNCFVUKXKSOYFJ-LZWOXQAQSA-N

> <PUBCHEM_XLOGP3>
-1.6

> <PUBCHEM_EXACT_MASS>
436.15941374

> <PUBCHEM_MOLECULAR_FORMULA>
C19H24N4O8

> <PUBCHEM_MOLECULAR_WEIGHT>
436.4

> <PUBCHEM_OPENEYE_CAN_SMILES>
CC1=CC2=C(C=C1C)N(C3=NC(=O)NC(=O)C3=N2)CC(C(C(COCO)OCO)O)O

> <PUBCHEM_OPENEYE_ISO_SMILES>
CC1=CC2=C(C=C1C)N(C3=NC(=O)NC(=O)C3=N2)C[C@@H]([C@@H]([C@@H](COCO)OCO)O)O

> <PUBCHEM_CACTVS_TPSA>
174

> <PUBCHEM_MONOISOTOPIC_WEIGHT>
436.15941374

> <PUBCHEM_TOTAL_CHARGE>
0

> <PUBCHEM_HEAVY_ATOM_COUNT>
31

> <PUBCHEM_ATOM_DEF_STEREO_COUNT>
3

> <PUBCHEM_ATOM_UDEF_STEREO_COUNT>
0

> <PUBCHEM_BOND_DEF_STEREO_COUNT>
0

> <PUBCHEM_BOND_UDEF_STEREO_COUNT>
0

> <PUBCHEM_ISOTOPIC_ATOM_COUNT>
0

> <PUBCHEM_COMPONENT_COUNT>
1

> <PUBCHEM_CACTVS_TAUTO_COUNT>
-1

> <PUBCHEM_COORDINATE_TYPE>
1
5
255

> <PUBCHEM_BONDANNOTATIONS>
13  1  6
10  20  8
10  22  8
11  18  8
11  30  8
12  26  8
12  30  8
17  20  8
17  21  8
14  2  5
20  24  8
21  23  8
22  26  8
23  25  8
24  25  8
16  3  6
9  17  8
9  18  8

$$$$
