 
  -OEChem-10192103292D

 42 41  0     1  0  0  0  0  0999 V2000
   12.0632    0.4050    0.0000 O   0  0  0  0  0  0  0  0  0  0  0  0
    6.8671    0.4050    0.0000 O   0  0  0  0  0  0  0  0  0  0  0  0
   16.3933   -0.0950    0.0000 O   0  0  0  0  0  0  0  0  0  0  0  0
   12.9292   -1.0950    0.0000 O   0  0  0  0  0  0  0  0  0  0  0  0
    2.5369   -0.0950    0.0000 O   0  0  0  0  0  0  0  0  0  0  0  0
   11.1972   -1.0950    0.0000 O   0  0  0  0  0  0  0  0  0  0  0  0
    6.0010   -1.0950    0.0000 O   0  0  0  0  0  0  0  0  0  0  0  0
    8.5991    1.4050    0.0000 O   0  0  0  0  0  0  0  0  0  0  0  0
   15.5273    1.4050    0.0000 O   0  0  0  0  0  0  0  0  0  0  0  0
    3.4030    1.4050    0.0000 O   0  0  0  0  0  0  0  0  0  0  0  0
    7.7331   -1.0950    0.0000 O   0  0  0  0  0  0  0  0  0  0  0  0
   14.6613   -1.0950    0.0000 N   0  0  0  0  0  0  0  0  0  0  0  0
    4.2690   -1.0950    0.0000 N   0  0  0  0  0  0  0  0  0  0  0  0
   14.6613   -0.0950    0.0000 C   0  0  1  0  0  0  0  0  0  0  0  0
   13.7953    0.4050    0.0000 C   0  0  0  0  0  0  0  0  0  0  0  0
    4.2690   -0.0950    0.0000 C   0  0  1  0  0  0  0  0  0  0  0  0
    5.1350    0.4050    0.0000 C   0  0  0  0  0  0  0  0  0  0  0  0
   10.3312    0.4050    0.0000 C   0  0  0  0  0  0  0  0  0  0  0  0
    9.4651   -0.0950    0.0000 C   0  0  0  0  0  0  0  0  0  0  0  0
   12.9292   -0.0950    0.0000 C   0  0  0  0  0  0  0  0  0  0  0  0
   11.1972   -0.0950    0.0000 C   0  0  0  0  0  0  0  0  0  0  0  0
    6.0010   -0.0950    0.0000 C   0  0  0  0  0  0  0  0  0  0  0  0
    8.5991    0.4050    0.0000 C   0  0  0  0  0  0  0  0  0  0  0  0
   15.5273    0.4050    0.0000 C   0  0  0  0  0  0  0  0  0  0  0  0
    3.4030    0.4050    0.0000 C   0  0  0  0  0  0  0  0  0  0  0  0
    7.7331   -0.0950    0.0000 C   0  0  0  0  0  0  0  0  0  0  0  0
   14.1244   -0.4050    0.0000 H   0  0  0  0  0  0  0  0  0  0  0  0
   14.1938    0.8799    0.0000 H   0  0  0  0  0  0  0  0  0  0  0  0
   13.3967    0.8799    0.0000 H   0  0  0  0  0  0  0  0  0  0  0  0
    4.8059   -0.4050    0.0000 H   0  0  0  0  0  0  0  0  0  0  0  0
    5.5335    0.8799    0.0000 H   0  0  0  0  0  0  0  0  0  0  0  0
    4.7365    0.8799    0.0000 H   0  0  0  0  0  0  0  0  0  0  0  0
   10.7297    0.8799    0.0000 H   0  0  0  0  0  0  0  0  0  0  0  0
    9.9326    0.8799    0.0000 H   0  0  0  0  0  0  0  0  0  0  0  0
    9.0666   -0.5699    0.0000 H   0  0  0  0  0  0  0  0  0  0  0  0
    9.8637   -0.5699    0.0000 H   0  0  0  0  0  0  0  0  0  0  0  0
   15.1982   -1.4050    0.0000 H   0  0  0  0  0  0  0  0  0  0  0  0
   14.1244   -1.4050    0.0000 H   0  0  0  0  0  0  0  0  0  0  0  0
    3.7320   -1.4050    0.0000 H   0  0  0  0  0  0  0  0  0  0  0  0
    4.8059   -1.4050    0.0000 H   0  0  0  0  0  0  0  0  0  0  0  0
   16.9303    0.2150    0.0000 H   0  0  0  0  0  0  0  0  0  0  0  0
    2.0000    0.2150    0.0000 H   0  0  0  0  0  0  0  0  0  0  0  0
  1 20  1  0  0  0  0
  1 21  1  0  0  0  0
  2 22  1  0  0  0  0
  2 26  1  0  0  0  0
  3 24  1  0  0  0  0
  3 41  1  0  0  0  0
  4 20  2  0  0  0  0
  5 25  1  0  0  0  0
  5 42  1  0  0  0  0
  6 21  2  0  0  0  0
  7 22  2  0  0  0  0
  8 23  2  0  0  0  0
  9 24  2  0  0  0  0
 10 25  2  0  0  0  0
 11 26  2  0  0  0  0
 14 12  1  1  0  0  0
 12 37  1  0  0  0  0
 12 38  1  0  0  0  0
 16 13  1  6  0  0  0
 13 39  1  0  0  0  0
 13 40  1  0  0  0  0
 14 15  1  0  0  0  0
 14 24  1  0  0  0  0
 14 27  1  0  0  0  0
 15 20  1  0  0  0  0
 15 28  1  0  0  0  0
 15 29  1  0  0  0  0
 16 17  1  0  0  0  0
 16 25  1  0  0  0  0
 16 30  1  0  0  0  0
 17 22  1  0  0  0  0
 17 31  1  0  0  0  0
 17 32  1  0  0  0  0
 18 19  1  0  0  0  0
 18 21  1  0  0  0  0
 18 33  1  0  0  0  0
 18 34  1  0  0  0  0
 19 23  1  0  0  0  0
 19 35  1  0  0  0  0
 19 36  1  0  0  0  0
 23 26  1  0  0  0  0
M  END
> <PUBCHEM_COMPOUND_CID>
88154702

> <PUBCHEM_COMPOUND_CANONICALIZED>
1

> <PUBCHEM_CACTVS_COMPLEXITY>
628

> <PUBCHEM_CACTVS_HBOND_ACCEPTOR>
13

> <PUBCHEM_CACTVS_HBOND_DONOR>
4

> <PUBCHEM_CACTVS_ROTATABLE_BOND>
14

> <PUBCHEM_CACTVS_SUBSKEYS>
AAADceBzPAAAAAAAAAAAAAAAAAAAAAAAAAAAAAAAAAAAAAAAAAAAHgAQCAAACCzBgAQACABABgAIAICQCAIAAAAAAAAAAIHAAAACABoAAAQCQAAGEAAAAADLJggAAAAAAAAAAAAAAAAAAAAAAAAAAAAAAA==

> <PUBCHEM_IUPAC_OPENEYE_NAME>
(2S)-2-amino-4-[5-[(3S)-3-amino-3-carboxy-propanoyl]oxy-4,5-dioxo-pentanoyl]oxy-4-oxo-butanoic acid

> <PUBCHEM_IUPAC_CAS_NAME>
(2S)-2-amino-4-[5-[(3S)-3-amino-3-carboxy-1-oxopropoxy]-1,4,5-trioxopentoxy]-4-oxobutanoic acid

> <PUBCHEM_IUPAC_NAME_MARKUP>
(2<I>S</I>)-2-amino-4-[5-[(3<I>S</I>)-3-amino-3-carboxypropanoyl]oxy-4,5-dioxopentanoyl]oxy-4-oxobutanoic acid

> <PUBCHEM_IUPAC_NAME>
(2S)-2-amino-4-[5-[(3S)-3-amino-3-carboxypropanoyl]oxy-4,5-dioxopentanoyl]oxy-4-oxobutanoic acid

> <PUBCHEM_IUPAC_SYSTEMATIC_NAME>
(2S)-2-azanyl-4-[5-[(3S)-3-azanyl-4-oxidanyl-4-oxidanylidene-butanoyl]oxy-4,5-bis(oxidanylidene)pentanoyl]oxy-4-oxidanylidene-butanoic acid

> <PUBCHEM_IUPAC_TRADITIONAL_NAME>
(2S)-2-amino-4-[5-[(3S)-3-amino-3-carboxy-propanoyl]oxy-4,5-diketo-pentanoyl]oxy-4-keto-butyric acid

> <PUBCHEM_IUPAC_INCHI>
InChI=1S/C13H16N2O11/c14-5(11(20)21)3-9(18)25-8(17)2-1-7(16)13(24)26-10(19)4-6(15)12(22)23/h5-6H,1-4,14-15H2,(H,20,21)(H,22,23)/t5-,6-/m0/s1

> <PUBCHEM_IUPAC_INCHIKEY>
JUCXXXDDOXQPNM-WDSKDSINSA-N

> <PUBCHEM_XLOGP3_AA>
-8

> <PUBCHEM_EXACT_MASS>
376.07540933

> <PUBCHEM_MOLECULAR_FORMULA>
C13H16N2O11

> <PUBCHEM_MOLECULAR_WEIGHT>
376.27

> <PUBCHEM_OPENEYE_CAN_SMILES>
C(CC(=O)OC(=O)CC(C(=O)O)N)C(=O)C(=O)OC(=O)CC(C(=O)O)N

> <PUBCHEM_OPENEYE_ISO_SMILES>
C(CC(=O)OC(=O)C[C@@H](C(=O)O)N)C(=O)C(=O)OC(=O)C[C@@H](C(=O)O)N

> <PUBCHEM_CACTVS_TPSA>
230

> <PUBCHEM_MONOISOTOPIC_WEIGHT>
376.07540933

> <PUBCHEM_TOTAL_CHARGE>
0

> <PUBCHEM_HEAVY_ATOM_COUNT>
26

> <PUBCHEM_ATOM_DEF_STEREO_COUNT>
2

> <PUBCHEM_ATOM_UDEF_STEREO_COUNT>
0

> <PUBCHEM_BOND_DEF_STEREO_COUNT>
0

> <PUBCHEM_BOND_UDEF_STEREO_COUNT>
0

> <PUBCHEM_ISOTOPIC_ATOM_COUNT>
0

> <PUBCHEM_COMPONENT_COUNT>
1

> <PUBCHEM_CACTVS_TAUTO_COUNT>
-1

> <PUBCHEM_COORDINATE_TYPE>
1
5
255

> <PUBCHEM_BONDANNOTATIONS>
14  12  5
16  13  6

$$$$
