 
  -OEChem-10192104342D

 79 81  0     1  0  0  0  0  0999 V2000
    6.1926   -0.9370    0.0000 O   0  0  0  0  0  0  0  0  0  0  0  0
    4.6441    1.7131    0.0000 O   0  0  0  0  0  0  0  0  0  0  0  0
    8.0586   -1.4370    0.0000 O   0  0  0  0  0  0  0  0  0  0  0  0
    7.6926    1.6611    0.0000 O   0  0  0  0  0  0  0  0  0  0  0  0
    4.1611   -0.9588    0.0000 O   0  0  0  0  0  0  0  0  0  0  0  0
   14.1208    0.0630    0.0000 O   0  0  0  0  0  0  0  0  0  0  0  0
   13.2548   -2.4370    0.0000 O   0  0  0  0  0  0  0  0  0  0  0  0
   14.1208   -2.9370    0.0000 O   0  0  0  0  0  0  0  0  0  0  0  0
   15.8528   -1.9370    0.0000 O   0  0  0  0  0  0  0  0  0  0  0  0
    6.3266   -2.4370    0.0000 O   0  0  0  0  0  0  0  0  0  0  0  0
   15.8528    0.0630    0.0000 O   0  0  0  0  0  0  0  0  0  0  0  0
    2.6200    1.6712    0.0000 O   0  0  0  0  0  0  0  0  0  0  0  0
    8.0586   -2.4370    0.0000 O   0  0  0  0  0  0  0  0  0  0  0  0
    7.1956    2.5537    0.0000 O   0  0  0  0  0  0  0  0  0  0  0  0
   11.5227   -2.4370    0.0000 O   0  0  0  0  0  0  0  0  0  0  0  0
    5.6857    1.7051    0.0000 N   0  0  0  0  0  0  0  0  0  0  0  0
    6.1926    0.7951    0.0000 C   0  0  1  0  0  0  0  0  0  0  0  0
    5.6926   -0.0710    0.0000 C   0  0  2  0  0  0  0  0  0  0  0  0
    7.1926    0.7951    0.0000 C   0  0  2  0  0  0  0  0  0  0  0  0
    4.6511   -0.0870    0.0000 C   0  0  1  0  0  0  0  0  0  0  0  0
    7.6926   -0.0710    0.0000 C   0  0  0  0  0  0  0  0  0  0  0  0
    7.1926   -0.9370    0.0000 C   0  0  2  0  0  0  0  0  0  0  0  0
    4.1233    0.8110    0.0000 C   0  0  1  0  0  0  0  0  0  0  0  0
   13.2548   -1.4370    0.0000 C   0  0  1  0  0  0  0  0  0  0  0  0
   14.1208   -1.9370    0.0000 C   0  0  2  0  0  0  0  0  0  0  0  0
   13.2548   -0.4370    0.0000 C   0  0  2  0  0  0  0  0  0  0  0  0
   14.9868   -1.4370    0.0000 C   0  0  1  0  0  0  0  0  0  0  0  0
   12.3887   -0.9370    0.0000 C   0  0  0  0  0  0  0  0  0  0  0  0
    3.1233    0.8072    0.0000 C   0  0  0  0  0  0  0  0  0  0  0  0
    7.1926   -1.9370    0.0000 C   0  0  0  0  0  0  0  0  0  0  0  0
   14.9868   -0.4370    0.0000 C   0  0  1  0  0  0  0  0  0  0  0  0
    6.1957    2.5652    0.0000 C   0  0  0  0  0  0  0  0  0  0  0  0
    8.9246   -0.9370    0.0000 C   0  0  0  0  0  0  0  0  0  0  0  0
   11.5227   -1.4370    0.0000 C   0  0  0  0  0  0  0  0  0  0  0  0
   12.3887    0.0630    0.0000 C   0  0  0  0  0  0  0  0  0  0  0  0
    9.7907   -1.4370    0.0000 C   0  0  0  0  0  0  0  0  0  0  0  0
   10.6567   -0.9370    0.0000 C   0  0  0  0  0  0  0  0  0  0  0  0
    5.7058    3.4370    0.0000 C   0  0  0  0  0  0  0  0  0  0  0  0
    6.3266   -3.4370    0.0000 C   0  0  0  0  0  0  0  0  0  0  0  0
   15.8528    1.0630    0.0000 C   0  0  0  0  0  0  0  0  0  0  0  0
    6.6232    1.5279    0.0000 H   0  0  0  0  0  0  0  0  0  0  0  0
    5.2733   -0.8103    0.0000 H   0  0  0  0  0  0  0  0  0  0  0  0
    7.8126    0.7951    0.0000 H   0  0  0  0  0  0  0  0  0  0  0  0
    4.9683   -0.6197    0.0000 H   0  0  0  0  0  0  0  0  0  0  0  0
    8.1675   -0.4695    0.0000 H   0  0  0  0  0  0  0  0  0  0  0  0
    8.1675    0.3276    0.0000 H   0  0  0  0  0  0  0  0  0  0  0  0
    3.8123    1.3474    0.0000 H   0  0  0  0  0  0  0  0  0  0  0  0
   14.6577   -2.2470    0.0000 H   0  0  0  0  0  0  0  0  0  0  0  0
   13.2548    0.1830    0.0000 H   0  0  0  0  0  0  0  0  0  0  0  0
   14.9868   -2.0570    0.0000 H   0  0  0  0  0  0  0  0  0  0  0  0
   12.7873   -0.4620    0.0000 H   0  0  0  0  0  0  0  0  0  0  0  0
   11.9902   -0.4620    0.0000 H   0  0  0  0  0  0  0  0  0  0  0  0
    2.5415    0.5929    0.0000 H   0  0  0  0  0  0  0  0  0  0  0  0
    3.2333    0.1970    0.0000 H   0  0  0  0  0  0  0  0  0  0  0  0
   15.5237   -0.7470    0.0000 H   0  0  0  0  0  0  0  0  0  0  0  0
    8.3126    1.6611    0.0000 H   0  0  0  0  0  0  0  0  0  0  0  0
    3.5412   -0.9659    0.0000 H   0  0  0  0  0  0  0  0  0  0  0  0
    9.3232   -0.4620    0.0000 H   0  0  0  0  0  0  0  0  0  0  0  0
    8.5261   -0.4620    0.0000 H   0  0  0  0  0  0  0  0  0  0  0  0
   12.6987    0.5999    0.0000 H   0  0  0  0  0  0  0  0  0  0  0  0
   11.8518    0.3730    0.0000 H   0  0  0  0  0  0  0  0  0  0  0  0
   12.0787   -0.4739    0.0000 H   0  0  0  0  0  0  0  0  0  0  0  0
    9.3921   -1.9119    0.0000 H   0  0  0  0  0  0  0  0  0  0  0  0
   10.1892   -1.9119    0.0000 H   0  0  0  0  0  0  0  0  0  0  0  0
   11.0552   -0.4620    0.0000 H   0  0  0  0  0  0  0  0  0  0  0  0
   10.2582   -0.4620    0.0000 H   0  0  0  0  0  0  0  0  0  0  0  0
   12.7178   -2.7470    0.0000 H   0  0  0  0  0  0  0  0  0  0  0  0
   14.6577   -3.2470    0.0000 H   0  0  0  0  0  0  0  0  0  0  0  0
    6.2462    3.7408    0.0000 H   0  0  0  0  0  0  0  0  0  0  0  0
    5.4020    3.9775    0.0000 H   0  0  0  0  0  0  0  0  0  0  0  0
    5.1653    3.1332    0.0000 H   0  0  0  0  0  0  0  0  0  0  0  0
   16.3898   -1.6270    0.0000 H   0  0  0  0  0  0  0  0  0  0  0  0
    2.0000    1.6689    0.0000 H   0  0  0  0  0  0  0  0  0  0  0  0
   16.4728    1.0630    0.0000 H   0  0  0  0  0  0  0  0  0  0  0  0
   15.8528    1.6830    0.0000 H   0  0  0  0  0  0  0  0  0  0  0  0
   15.2328    1.0630    0.0000 H   0  0  0  0  0  0  0  0  0  0  0  0
    5.7066   -3.4370    0.0000 H   0  0  0  0  0  0  0  0  0  0  0  0
    6.3266   -4.0570    0.0000 H   0  0  0  0  0  0  0  0  0  0  0  0
    6.9466   -3.4370    0.0000 H   0  0  0  0  0  0  0  0  0  0  0  0
  1 18  1  0  0  0  0
  1 22  1  0  0  0  0
  2 16  1  0  0  0  0
  2 23  1  0  0  0  0
 22  3  1  1  0  0  0
  3 33  1  0  0  0  0
 19  4  1  1  0  0  0
  4 56  1  0  0  0  0
 20  5  1  6  0  0  0
  5 57  1  0  0  0  0
  6 26  1  0  0  0  0
  6 31  1  0  0  0  0
 24  7  1  6  0  0  0
  7 67  1  0  0  0  0
 25  8  1  6  0  0  0
  8 68  1  0  0  0  0
 27  9  1  1  0  0  0
  9 72  1  0  0  0  0
 10 30  1  0  0  0  0
 10 39  1  0  0  0  0
 31 11  1  1  0  0  0
 11 40  1  0  0  0  0
 12 29  1  0  0  0  0
 12 73  1  0  0  0  0
 13 30  2  0  0  0  0
 14 32  2  0  0  0  0
 15 34  2  0  0  0  0
 16 17  1  0  0  0  0
 16 32  1  0  0  0  0
 17 18  1  0  0  0  0
 17 19  1  0  0  0  0
 17 41  1  1  0  0  0
 18 20  1  0  0  0  0
 18 42  1  6  0  0  0
 19 21  1  0  0  0  0
 19 43  1  0  0  0  0
 20 23  1  0  0  0  0
 20 44  1  0  0  0  0
 21 22  1  0  0  0  0
 21 45  1  0  0  0  0
 21 46  1  0  0  0  0
 22 30  1  0  0  0  0
 23 29  1  1  0  0  0
 23 47  1  0  0  0  0
 24 25  1  0  0  0  0
 24 26  1  0  0  0  0
 24 28  1  0  0  0  0
 25 27  1  0  0  0  0
 25 48  1  0  0  0  0
 26 35  1  6  0  0  0
 26 49  1  0  0  0  0
 27 31  1  0  0  0  0
 27 50  1  0  0  0  0
 28 34  1  0  0  0  0
 28 51  1  0  0  0  0
 28 52  1  0  0  0  0
 29 53  1  0  0  0  0
 29 54  1  0  0  0  0
 31 55  1  0  0  0  0
 32 38  1  0  0  0  0
 33 36  1  0  0  0  0
 33 58  1  0  0  0  0
 33 59  1  0  0  0  0
 34 37  1  0  0  0  0
 35 60  1  0  0  0  0
 35 61  1  0  0  0  0
 35 62  1  0  0  0  0
 36 37  1  0  0  0  0
 36 63  1  0  0  0  0
 36 64  1  0  0  0  0
 37 65  1  0  0  0  0
 37 66  1  0  0  0  0
 38 69  1  0  0  0  0
 38 70  1  0  0  0  0
 38 71  1  0  0  0  0
 39 77  1  0  0  0  0
 39 78  1  0  0  0  0
 39 79  1  0  0  0  0
 40 74  1  0  0  0  0
 40 75  1  0  0  0  0
 40 76  1  0  0  0  0
M  END
> <PUBCHEM_COMPOUND_CID>
59770639

> <PUBCHEM_COMPOUND_CANONICALIZED>
1

> <PUBCHEM_CACTVS_COMPLEXITY>
921

> <PUBCHEM_CACTVS_HBOND_ACCEPTOR>
15

> <PUBCHEM_CACTVS_HBOND_DONOR>
6

> <PUBCHEM_CACTVS_ROTATABLE_BOND>
11

> <PUBCHEM_CACTVS_SUBSKEYS>
AAADcfB6PAAAAAAAAAAAAAAAAAAAAAAAAAAsSJAAAAAAAACwAAAAHgAECAAADHzxgAcCCAIQBgAIAIGQGAIAAAAAAAAgAAFIAAATEBYAgAQnQAAHJgCXAAH6/e/eAAAAAAAAAAAAAAAAAAAAAAAAAAAAAA==

> <PUBCHEM_IUPAC_OPENEYE_NAME>
methyl (3R,4S,4aR,6R,8S,8aR)-1-acetyl-4,8-dihydroxy-3-(hydroxymethyl)-6-[4-oxo-5-[(2S,3S,4S,5S,6R)-3,4,5-trihydroxy-6-methoxy-2-methyl-tetrahydropyran-3-yl]pentoxy]-3,4,4a,7,8,8a-hexahydropyrano[3,2-c]oxazine-6-carboxylate

> <PUBCHEM_IUPAC_CAS_NAME>
(3R,4S,4aR,6R,8S,8aR)-1-acetyl-4,8-dihydroxy-3-(hydroxymethyl)-6-[4-oxo-5-[(2S,3S,4S,5S,6R)-3,4,5-trihydroxy-6-methoxy-2-methyl-3-oxanyl]pentoxy]-3,4,4a,7,8,8a-hexahydropyrano[3,2-c]oxazine-6-carboxylic acid methyl ester

> <PUBCHEM_IUPAC_NAME_MARKUP>
methyl (3<I>R</I>,4<I>S</I>,4<I>a</I><I>R</I>,6<I>R</I>,8<I>S</I>,8<I>a</I><I>R</I>)-1-acetyl-4,8-dihydroxy-3-(hydroxymethyl)-6-[4-oxo-5-[(2<I>S</I>,3<I>S</I>,4<I>S</I>,5<I>S</I>,6<I>R</I>)-3,4,5-trihydroxy-6-methoxy-2-methyloxan-3-yl]pentoxy]-3,4,4<I>a</I>,7,8,8<I>a</I>-hexahydropyrano[3,2-c]oxazine-6-carboxylate

> <PUBCHEM_IUPAC_NAME>
methyl (3R,4S,4aR,6R,8S,8aR)-1-acetyl-4,8-dihydroxy-3-(hydroxymethyl)-6-[4-oxo-5-[(2S,3S,4S,5S,6R)-3,4,5-trihydroxy-6-methoxy-2-methyloxan-3-yl]pentoxy]-3,4,4a,7,8,8a-hexahydropyrano[3,2-c]oxazine-6-carboxylate

> <PUBCHEM_IUPAC_SYSTEMATIC_NAME>
methyl (3R,4S,4aR,6R,8S,8aR)-1-ethanoyl-3-(hydroxymethyl)-6-[5-[(2S,3S,4S,5S,6R)-6-methoxy-2-methyl-3,4,5-tris(oxidanyl)oxan-3-yl]-4-oxidanylidene-pentoxy]-4,8-bis(oxidanyl)-3,4,4a,7,8,8a-hexahydropyrano[3,2-c][1,2]oxazine-6-carboxylate

> <PUBCHEM_IUPAC_TRADITIONAL_NAME>
(3R,4S,4aR,6R,8S,8aR)-1-acetyl-4,8-dihydroxy-6-[4-keto-5-[(2S,3S,4S,5S,6R)-3,4,5-trihydroxy-6-methoxy-2-methyl-tetrahydropyran-3-yl]pentoxy]-3-methylol-3,4,4a,7,8,8a-hexahydropyrano[3,2-c]oxazine-6-carboxylic acid methyl ester

> <PUBCHEM_IUPAC_INCHI>
InChI=1S/C24H39NO15/c1-11-23(34,20(32)18(31)21(35-3)38-11)8-13(28)6-5-7-37-24(22(33)36-4)9-14(29)16-19(39-24)17(30)15(10-26)40-25(16)12(2)27/h11,14-21,26,29-32,34H,5-10H2,1-4H3/t11-,14-,15+,16+,17+,18-,19+,20-,21+,23+,24+/m0/s1

> <PUBCHEM_IUPAC_INCHIKEY>
KKWSGJHKVSGATA-ZNOJXVMZSA-N

> <PUBCHEM_XLOGP3_AA>
-3.4

> <PUBCHEM_EXACT_MASS>
581.23196954

> <PUBCHEM_MOLECULAR_FORMULA>
C24H39NO15

> <PUBCHEM_MOLECULAR_WEIGHT>
581.6

> <PUBCHEM_OPENEYE_CAN_SMILES>
CC1C(C(C(C(O1)OC)O)O)(CC(=O)CCCOC2(CC(C3C(O2)C(C(ON3C(=O)C)CO)O)O)C(=O)OC)O

> <PUBCHEM_OPENEYE_ISO_SMILES>
C[C@H]1[C@@]([C@H]([C@@H]([C@@H](O1)OC)O)O)(CC(=O)CCCO[C@@]2(C[C@@H]([C@@H]3[C@@H](O2)[C@@H]([C@H](ON3C(=O)C)CO)O)O)C(=O)OC)O

> <PUBCHEM_CACTVS_TPSA>
231

> <PUBCHEM_MONOISOTOPIC_WEIGHT>
581.23196954

> <PUBCHEM_TOTAL_CHARGE>
0

> <PUBCHEM_HEAVY_ATOM_COUNT>
40

> <PUBCHEM_ATOM_DEF_STEREO_COUNT>
11

> <PUBCHEM_ATOM_UDEF_STEREO_COUNT>
0

> <PUBCHEM_BOND_DEF_STEREO_COUNT>
0

> <PUBCHEM_BOND_UDEF_STEREO_COUNT>
0

> <PUBCHEM_ISOTOPIC_ATOM_COUNT>
0

> <PUBCHEM_COMPONENT_COUNT>
1

> <PUBCHEM_CACTVS_TAUTO_COUNT>
-1

> <PUBCHEM_COORDINATE_TYPE>
1
5
255

> <PUBCHEM_BONDANNOTATIONS>
31  11  5
17  41  5
18  42  6
23  29  5
26  35  6
22  3  5
19  4  5
20  5  6
24  7  6
25  8  6
27  9  5

$$$$
