 
  -OEChem-10192104092D

 74 78  0     1  0  0  0  0  0999 V2000
    9.8781    1.1758    0.0000 P   0  0  3  0  0  0  0  0  0  0  0  0
    7.3435   -0.5887    0.0000 O   0  0  0  0  0  0  0  0  0  0  0  0
   13.2099    1.1819    0.0000 O   0  0  0  0  0  0  0  0  0  0  0  0
   10.6882    1.7621    0.0000 O   0  0  0  0  0  0  0  0  0  0  0  0
    6.0873    1.6736    0.0000 O   0  0  0  0  0  0  0  0  0  0  0  0
    9.0681    0.5894    0.0000 O   0  0  0  0  0  0  0  0  0  0  0  0
   13.4884    3.2518    0.0000 O   0  0  0  0  0  0  0  0  0  0  0  0
   10.4645    0.3657    0.0000 O   0  0  0  0  0  0  0  0  0  0  0  0
    9.2917    1.9858    0.0000 O   0  0  0  0  0  0  0  0  0  0  0  0
   11.7986   -1.4612    0.0000 O   0  0  0  0  0  0  0  0  0  0  0  0
    4.2690   -4.6513    0.0000 O   0  0  0  0  0  0  0  0  0  0  0  0
    6.0812   -1.8466    0.0000 N   0  0  0  0  0  0  0  0  0  0  0  0
   13.3001   -0.5978    0.0000 N   0  0  0  0  0  0  0  0  0  0  0  0
    6.0812   -3.4560    0.0000 N   0  0  0  0  0  0  0  0  0  0  0  0
    4.2690   -1.6513    0.0000 N   0  0  0  0  0  0  0  0  0  0  0  0
   14.7986   -1.4664    0.0000 N   0  0  0  0  0  0  0  0  0  0  0  0
   13.2971   -2.3299    0.0000 N   0  0  0  0  0  0  0  0  0  0  0  0
    3.4030   -3.1513    0.0000 N   0  0  0  0  0  0  0  0  0  0  0  0
    2.5369   -1.6513    0.0000 N   0  0  0  0  0  0  0  0  0  0  0  0
   14.7956   -3.1985    0.0000 N   0  0  0  0  0  0  0  0  0  0  0  0
    6.3947    0.7220    0.0000 C   0  0  3  0  0  0  0  0  0  0  0  0
    7.3452    0.4113    0.0000 C   0  0  3  0  0  0  0  0  0  0  0  0
    5.8055   -0.0860    0.0000 C   0  0  0  0  0  0  0  0  0  0  0  0
    6.3919   -0.8961    0.0000 C   0  0  3  0  0  0  0  0  0  0  0  0
   11.6010    1.3538    0.0000 C   0  0  3  0  0  0  0  0  0  0  0  0
   12.4679    1.8523    0.0000 C   0  0  3  0  0  0  0  0  0  0  0  0
   11.8072    0.3753    0.0000 C   0  0  0  0  0  0  0  0  0  0  0  0
   12.8016    0.2691    0.0000 C   0  0  3  0  0  0  0  0  0  0  0  0
    8.1552    0.9977    0.0000 C   0  0  0  0  0  0  0  0  0  0  0  0
   12.5741    2.8467    0.0000 C   0  0  0  0  0  0  0  0  0  0  0  0
    5.1350   -2.1513    0.0000 C   0  0  0  0  0  0  0  0  0  0  0  0
    6.6648   -2.6513    0.0000 C   0  0  0  0  0  0  0  0  0  0  0  0
    6.7577    2.4155    0.0000 C   0  0  0  0  0  0  0  0  0  0  0  0
    5.1350   -3.1513    0.0000 C   0  0  0  0  0  0  0  0  0  0  0  0
   12.7986   -1.4630    0.0000 C   0  0  0  0  0  0  0  0  0  0  0  0
   14.3001   -0.5995    0.0000 C   0  0  0  0  0  0  0  0  0  0  0  0
    6.4504    3.3671    0.0000 C   0  0  0  0  0  0  0  0  0  0  0  0
   13.5946    4.2462    0.0000 C   0  0  0  0  0  0  0  0  0  0  0  0
    4.2690   -3.6513    0.0000 C   0  0  0  0  0  0  0  0  0  0  0  0
    3.4030   -2.1513    0.0000 C   0  0  0  0  0  0  0  0  0  0  0  0
   14.2971   -2.3316    0.0000 C   0  0  0  0  0  0  0  0  0  0  0  0
   14.5089    4.6513    0.0000 C   0  0  0  0  0  0  0  0  0  0  0  0
    5.7825    0.8200    0.0000 H   0  0  0  0  0  0  0  0  0  0  0  0
    7.8972    0.1289    0.0000 H   0  0  0  0  0  0  0  0  0  0  0  0
    5.3455    0.3296    0.0000 H   0  0  0  0  0  0  0  0  0  0  0  0
    5.3440   -0.5001    0.0000 H   0  0  0  0  0  0  0  0  0  0  0  0
    5.7794   -0.9920    0.0000 H   0  0  0  0  0  0  0  0  0  0  0  0
   11.5696    1.9730    0.0000 H   0  0  0  0  0  0  0  0  0  0  0  0
   13.0471    2.0735    0.0000 H   0  0  0  0  0  0  0  0  0  0  0  0
   11.1905    0.3116    0.0000 H   0  0  0  0  0  0  0  0  0  0  0  0
   11.8061   -0.2447    0.0000 H   0  0  0  0  0  0  0  0  0  0  0  0
   12.4630   -0.2503    0.0000 H   0  0  0  0  0  0  0  0  0  0  0  0
    8.5028    1.5111    0.0000 H   0  0  0  0  0  0  0  0  0  0  0  0
    7.7100    1.4292    0.0000 H   0  0  0  0  0  0  0  0  0  0  0  0
   12.4252    3.4485    0.0000 H   0  0  0  0  0  0  0  0  0  0  0  0
   11.9556    2.8045    0.0000 H   0  0  0  0  0  0  0  0  0  0  0  0
    7.2848   -2.6513    0.0000 H   0  0  0  0  0  0  0  0  0  0  0  0
    7.1386    1.9263    0.0000 H   0  0  0  0  0  0  0  0  0  0  0  0
    7.3057    2.7057    0.0000 H   0  0  0  0  0  0  0  0  0  0  0  0
   14.6110   -0.0632    0.0000 H   0  0  0  0  0  0  0  0  0  0  0  0
    7.0404    3.5577    0.0000 H   0  0  0  0  0  0  0  0  0  0  0  0
    6.2598    3.9571    0.0000 H   0  0  0  0  0  0  0  0  0  0  0  0
    5.8604    3.1766    0.0000 H   0  0  0  0  0  0  0  0  0  0  0  0
   10.2113   -0.2002    0.0000 H   0  0  0  0  0  0  0  0  0  0  0  0
   13.4457    4.8480    0.0000 H   0  0  0  0  0  0  0  0  0  0  0  0
   12.9761    4.2040    0.0000 H   0  0  0  0  0  0  0  0  0  0  0  0
    2.8660   -3.4613    0.0000 H   0  0  0  0  0  0  0  0  0  0  0  0
   14.7601    4.0845    0.0000 H   0  0  0  0  0  0  0  0  0  0  0  0
   15.0757    4.9025    0.0000 H   0  0  0  0  0  0  0  0  0  0  0  0
   14.2577    5.2181    0.0000 H   0  0  0  0  0  0  0  0  0  0  0  0
    2.0000   -1.9613    0.0000 H   0  0  0  0  0  0  0  0  0  0  0  0
    2.5369   -1.0313    0.0000 H   0  0  0  0  0  0  0  0  0  0  0  0
   15.4156   -3.1996    0.0000 H   0  0  0  0  0  0  0  0  0  0  0  0
   14.4846   -3.7349    0.0000 H   0  0  0  0  0  0  0  0  0  0  0  0
  1  4  1  0  0  0  0
  1  6  1  0  0  0  0
  1  8  1  0  0  0  0
  1  9  2  0  0  0  0
  2 22  1  0  0  0  0
  2 24  1  0  0  0  0
  3 26  1  0  0  0  0
  3 28  1  0  0  0  0
  4 25  1  0  0  0  0
  5 21  1  0  0  0  0
  5 33  1  0  0  0  0
  6 29  1  0  0  0  0
  7 30  1  0  0  0  0
  7 38  1  0  0  0  0
  8 64  1  0  0  0  0
 10 35  2  0  0  0  0
 11 39  2  0  0  0  0
 12 24  1  0  0  0  0
 12 31  1  0  0  0  0
 12 32  1  0  0  0  0
 13 28  1  0  0  0  0
 13 35  1  0  0  0  0
 13 36  1  0  0  0  0
 14 32  2  0  0  0  0
 14 34  1  0  0  0  0
 15 31  1  0  0  0  0
 15 40  2  0  0  0  0
 16 36  2  0  0  0  0
 16 41  1  0  0  0  0
 17 35  1  0  0  0  0
 17 41  2  0  0  0  0
 18 39  1  0  0  0  0
 18 40  1  0  0  0  0
 18 67  1  0  0  0  0
 19 40  1  0  0  0  0
 19 71  1  0  0  0  0
 19 72  1  0  0  0  0
 20 41  1  0  0  0  0
 20 73  1  0  0  0  0
 20 74  1  0  0  0  0
 21 22  1  0  0  0  0
 21 23  1  0  0  0  0
 21 43  1  0  0  0  0
 22 29  1  0  0  0  0
 22 44  1  0  0  0  0
 23 24  1  0  0  0  0
 23 45  1  0  0  0  0
 23 46  1  0  0  0  0
 24 47  1  0  0  0  0
 25 26  1  0  0  0  0
 25 27  1  0  0  0  0
 25 48  1  0  0  0  0
 26 30  1  0  0  0  0
 26 49  1  0  0  0  0
 27 28  1  0  0  0  0
 27 50  1  0  0  0  0
 27 51  1  0  0  0  0
 28 52  1  0  0  0  0
 29 53  1  0  0  0  0
 29 54  1  0  0  0  0
 30 55  1  0  0  0  0
 30 56  1  0  0  0  0
 31 34  2  0  0  0  0
 32 57  1  0  0  0  0
 33 37  1  0  0  0  0
 33 58  1  0  0  0  0
 33 59  1  0  0  0  0
 34 39  1  0  0  0  0
 36 60  1  0  0  0  0
 37 61  1  0  0  0  0
 37 62  1  0  0  0  0
 37 63  1  0  0  0  0
 38 42  1  0  0  0  0
 38 65  1  0  0  0  0
 38 66  1  0  0  0  0
 42 68  1  0  0  0  0
 42 69  1  0  0  0  0
 42 70  1  0  0  0  0
M  END
> <PUBCHEM_COMPOUND_CID>
137037731

> <PUBCHEM_COMPOUND_CANONICALIZED>
1

> <PUBCHEM_CACTVS_COMPLEXITY>
1170

> <PUBCHEM_CACTVS_HBOND_ACCEPTOR>
12

> <PUBCHEM_CACTVS_HBOND_DONOR>
4

> <PUBCHEM_CACTVS_ROTATABLE_BOND>
12

> <PUBCHEM_CACTVS_SUBSKEYS>
AAADcfB7/AIAAAAAAAAAAAAAAAAAAWJEgAAgQAAAAAAAAEABgAAAHgAQCCAACBzhlgYHsBfMFRCoQQdxdICAgC0XEKABUAGoVECBSApAyCAeAIgPBwLCAGCwMAoAAAAAAAAAAAAAAAAAAAAAAAAAAAAAAA==

> <PUBCHEM_IUPAC_OPENEYE_NAME>
[5-(2-amino-6-oxo-1H-purin-9-yl)-3-ethoxy-tetrahydrofuran-2-yl]methyl [5-(4-amino-2-oxo-1,3,5-triazin-1-yl)-2-(ethoxymethyl)tetrahydrofuran-3-yl] hydrogen phosphate

> <PUBCHEM_IUPAC_CAS_NAME>
[5-(2-amino-6-oxo-1H-purin-9-yl)-3-ethoxy-2-oxolanyl]methyl [5-(4-amino-2-oxo-1,3,5-triazin-1-yl)-2-(ethoxymethyl)-3-oxolanyl] hydrogen phosphate

> <PUBCHEM_IUPAC_NAME_MARKUP>
[5-(2-amino-6-oxo-1<I>H</I>-purin-9-yl)-3-ethoxyoxolan-2-yl]methyl [5-(4-amino-2-oxo-1,3,5-triazin-1-yl)-2-(ethoxymethyl)oxolan-3-yl] hydrogen phosphate

> <PUBCHEM_IUPAC_NAME>
[5-(2-amino-6-oxo-1H-purin-9-yl)-3-ethoxyoxolan-2-yl]methyl [5-(4-amino-2-oxo-1,3,5-triazin-1-yl)-2-(ethoxymethyl)oxolan-3-yl] hydrogen phosphate

> <PUBCHEM_IUPAC_SYSTEMATIC_NAME>
[5-(2-azanyl-6-oxidanylidene-1H-purin-9-yl)-3-ethoxy-oxolan-2-yl]methyl [5-(4-azanyl-2-oxidanylidene-1,3,5-triazin-1-yl)-2-(ethoxymethyl)oxolan-3-yl] hydrogen phosphate

> <PUBCHEM_IUPAC_TRADITIONAL_NAME>
[5-(2-amino-6-keto-1H-purin-9-yl)-3-ethoxy-tetrahydrofuran-2-yl]methyl [5-(4-amino-2-keto-s-triazin-1-yl)-2-(ethoxymethyl)tetrahydrofuran-3-yl] hydrogen phosphate

> <PUBCHEM_IUPAC_INCHI>
InChI=1S/C22H32N9O10P/c1-3-36-7-13-12(6-16(39-13)31-10-26-20(23)29-22(31)33)41-42(34,35)38-8-14-11(37-4-2)5-15(40-14)30-9-25-17-18(30)27-21(24)28-19(17)32/h9-16H,3-8H2,1-2H3,(H,34,35)(H2,23,29,33)(H3,24,27,28,32)

> <PUBCHEM_IUPAC_INCHIKEY>
IQTRRBBCMACHJY-UHFFFAOYSA-N

> <PUBCHEM_XLOGP3_AA>
-2.7

> <PUBCHEM_EXACT_MASS>
613.20097525

> <PUBCHEM_MOLECULAR_FORMULA>
C22H32N9O10P

> <PUBCHEM_MOLECULAR_WEIGHT>
613.5

> <PUBCHEM_OPENEYE_CAN_SMILES>
CCOCC1C(CC(O1)N2C=NC(=NC2=O)N)OP(=O)(O)OCC3C(CC(O3)N4C=NC5=C4N=C(NC5=O)N)OCC

> <PUBCHEM_OPENEYE_ISO_SMILES>
CCOCC1C(CC(O1)N2C=NC(=NC2=O)N)OP(=O)(O)OCC3C(CC(O3)N4C=NC5=C4N=C(NC5=O)N)OCC

> <PUBCHEM_CACTVS_TPSA>
249

> <PUBCHEM_MONOISOTOPIC_WEIGHT>
613.20097525

> <PUBCHEM_TOTAL_CHARGE>
0

> <PUBCHEM_HEAVY_ATOM_COUNT>
42

> <PUBCHEM_ATOM_DEF_STEREO_COUNT>
0

> <PUBCHEM_ATOM_UDEF_STEREO_COUNT>
6

> <PUBCHEM_BOND_DEF_STEREO_COUNT>
0

> <PUBCHEM_BOND_UDEF_STEREO_COUNT>
0

> <PUBCHEM_ISOTOPIC_ATOM_COUNT>
0

> <PUBCHEM_COMPONENT_COUNT>
1

> <PUBCHEM_CACTVS_TAUTO_COUNT>
-1

> <PUBCHEM_COORDINATE_TYPE>
1
5
255

> <PUBCHEM_BONDANNOTATIONS>
24  12  3
12  31  8
12  32  8
28  13  3
13  35  8
13  36  8
14  32  8
14  34  8
15  31  8
15  40  8
16  36  8
16  41  8
17  35  8
17  41  8
18  39  8
18  40  8
22  29  3
26  30  3
31  34  8
34  39  8
25  4  3
21  5  3

$$$$
