 
  -OEChem-10192103482D

 69 72  0     1  0  0  0  0  0999 V2000
    6.0010    1.2316    0.0000 S   0  0  0  0  0  0  0  0  0  0  0  0
    4.2690    1.2316    0.0000 O   0  0  0  0  0  0  0  0  0  0  0  0
    5.1350    2.7316    0.0000 O   0  0  0  0  0  0  0  0  0  0  0  0
    6.0010   -0.7684    0.0000 O   0  0  0  0  0  0  0  0  0  0  0  0
    7.7331    2.2316    0.0000 O   0  0  0  0  0  0  0  0  0  0  0  0
    2.5369   -0.7684    0.0000 O   0  0  0  0  0  0  0  0  0  0  0  0
    6.0010    5.2316    0.0000 O   0  0  0  0  0  0  0  0  0  0  0  0
    2.5369    2.2316    0.0000 O   0  0  0  0  0  0  0  0  0  0  0  0
    4.2690    5.2316    0.0000 O   0  0  0  0  0  0  0  0  0  0  0  0
    2.1867   -4.0118    0.0000 O   0  0  0  0  0  0  0  0  0  0  0  0
   10.7170    3.5499    0.0000 O   0  0  0  0  0  0  0  0  0  0  0  0
    4.2690   -1.7684    0.0000 N   0  0  0  0  0  0  0  0  0  0  0  0
    7.7331    4.2316    0.0000 N   0  0  0  0  0  0  0  0  0  0  0  0
    5.0780   -2.3562    0.0000 N   0  0  0  0  0  0  0  0  0  0  0  0
    7.8376    5.2261    0.0000 N   0  0  0  0  0  0  0  0  0  0  0  0
    4.7690   -3.3073    0.0000 N   0  0  0  0  0  0  0  0  0  0  0  0
    8.8158    5.4340    0.0000 N   0  0  0  0  0  0  0  0  0  0  0  0
    3.5879   -5.0298    0.0000 N   0  0  0  0  0  0  0  0  0  0  0  0
   10.8981    5.2725    0.0000 N   0  0  0  0  0  0  0  0  0  0  0  0
    4.2690   -0.7684    0.0000 C   0  0  2  0  0  0  0  0  0  0  0  0
    6.8671    3.7316    0.0000 C   0  0  2  0  0  0  0  0  0  0  0  0
    5.1350   -0.2684    0.0000 C   0  0  2  0  0  0  0  0  0  0  0  0
    6.8671    2.7316    0.0000 C   0  0  2  0  0  0  0  0  0  0  0  0
    5.1350    0.7316    0.0000 C   0  0  2  0  0  0  0  0  0  0  0  0
    6.0010    2.2316    0.0000 C   0  0  2  0  0  0  0  0  0  0  0  0
    3.4030   -0.2684    0.0000 C   0  0  2  0  0  0  0  0  0  0  0  0
    6.0010    4.2316    0.0000 C   0  0  2  0  0  0  0  0  0  0  0  0
    3.4030    0.7316    0.0000 C   0  0  1  0  0  0  0  0  0  0  0  0
    5.1350    3.7316    0.0000 C   0  0  1  0  0  0  0  0  0  0  0  0
    2.5369    1.2316    0.0000 C   0  0  0  0  0  0  0  0  0  0  0  0
    4.2690    4.2316    0.0000 C   0  0  0  0  0  0  0  0  0  0  0  0
    3.4600   -2.3562    0.0000 C   0  0  0  0  0  0  0  0  0  0  0  0
    8.6466    3.8248    0.0000 C   0  0  0  0  0  0  0  0  0  0  0  0
    3.7690   -3.3073    0.0000 C   0  0  0  0  0  0  0  0  0  0  0  0
    9.3158    4.5680    0.0000 C   0  0  0  0  0  0  0  0  0  0  0  0
    3.1812   -4.1163    0.0000 C   0  0  0  0  0  0  0  0  0  0  0  0
   10.3103    4.4634    0.0000 C   0  0  0  0  0  0  0  0  0  0  0  0
    3.0002   -5.8389    0.0000 C   0  0  0  0  0  0  0  0  0  0  0  0
   11.8926    5.1679    0.0000 C   0  0  0  0  0  0  0  0  0  0  0  0
    3.7320   -1.0784    0.0000 H   0  0  0  0  0  0  0  0  0  0  0  0
    6.8671    4.3516    0.0000 H   0  0  0  0  0  0  0  0  0  0  0  0
    5.1350   -0.8884    0.0000 H   0  0  0  0  0  0  0  0  0  0  0  0
    7.4040    3.0416    0.0000 H   0  0  0  0  0  0  0  0  0  0  0  0
    5.1350    1.3516    0.0000 H   0  0  0  0  0  0  0  0  0  0  0  0
    6.5380    1.9216    0.0000 H   0  0  0  0  0  0  0  0  0  0  0  0
    3.4030   -0.8884    0.0000 H   0  0  0  0  0  0  0  0  0  0  0  0
    6.5380    4.5416    0.0000 H   0  0  0  0  0  0  0  0  0  0  0  0
    3.4030    1.3516    0.0000 H   0  0  0  0  0  0  0  0  0  0  0  0
    4.5981    3.4216    0.0000 H   0  0  0  0  0  0  0  0  0  0  0  0
    1.9264    1.3392    0.0000 H   0  0  0  0  0  0  0  0  0  0  0  0
    2.3249    0.6490    0.0000 H   0  0  0  0  0  0  0  0  0  0  0  0
    3.6584    4.3392    0.0000 H   0  0  0  0  0  0  0  0  0  0  0  0
    4.0569    3.6490    0.0000 H   0  0  0  0  0  0  0  0  0  0  0  0
    6.5380   -0.4584    0.0000 H   0  0  0  0  0  0  0  0  0  0  0  0
    7.7331    1.6116    0.0000 H   0  0  0  0  0  0  0  0  0  0  0  0
    2.0000   -0.4584    0.0000 H   0  0  0  0  0  0  0  0  0  0  0  0
    5.4641    5.5416    0.0000 H   0  0  0  0  0  0  0  0  0  0  0  0
    2.8703   -2.1646    0.0000 H   0  0  0  0  0  0  0  0  0  0  0  0
    8.7755    3.2184    0.0000 H   0  0  0  0  0  0  0  0  0  0  0  0
    2.0000    2.5416    0.0000 H   0  0  0  0  0  0  0  0  0  0  0  0
    3.7320    5.5416    0.0000 H   0  0  0  0  0  0  0  0  0  0  0  0
    4.2045   -5.0946    0.0000 H   0  0  0  0  0  0  0  0  0  0  0  0
   10.6459    5.8389    0.0000 H   0  0  0  0  0  0  0  0  0  0  0  0
    2.4986   -5.4744    0.0000 H   0  0  0  0  0  0  0  0  0  0  0  0
    2.6357   -6.3404    0.0000 H   0  0  0  0  0  0  0  0  0  0  0  0
    3.5017   -6.2033    0.0000 H   0  0  0  0  0  0  0  0  0  0  0  0
   11.8278    4.5513    0.0000 H   0  0  0  0  0  0  0  0  0  0  0  0
   12.5092    5.1031    0.0000 H   0  0  0  0  0  0  0  0  0  0  0  0
   11.9574    5.7845    0.0000 H   0  0  0  0  0  0  0  0  0  0  0  0
 24  1  1  1  0  0  0
 25  1  1  6  0  0  0
  2 24  1  0  0  0  0
  2 28  1  0  0  0  0
  3 25  1  0  0  0  0
  3 29  1  0  0  0  0
 22  4  1  6  0  0  0
  4 54  1  0  0  0  0
 23  5  1  1  0  0  0
  5 55  1  0  0  0  0
 26  6  1  1  0  0  0
  6 56  1  0  0  0  0
 27  7  1  6  0  0  0
  7 57  1  0  0  0  0
  8 30  1  0  0  0  0
  8 60  1  0  0  0  0
  9 31  1  0  0  0  0
  9 61  1  0  0  0  0
 10 36  2  0  0  0  0
 11 37  2  0  0  0  0
 12 14  1  0  0  0  0
 20 12  1  1  0  0  0
 12 32  1  0  0  0  0
 13 15  1  0  0  0  0
 21 13  1  6  0  0  0
 13 33  1  0  0  0  0
 14 16  2  0  0  0  0
 15 17  2  0  0  0  0
 16 34  1  0  0  0  0
 17 35  1  0  0  0  0
 18 36  1  0  0  0  0
 18 38  1  0  0  0  0
 18 62  1  0  0  0  0
 19 37  1  0  0  0  0
 19 39  1  0  0  0  0
 19 63  1  0  0  0  0
 20 22  1  0  0  0  0
 20 26  1  0  0  0  0
 20 40  1  0  0  0  0
 21 23  1  0  0  0  0
 21 27  1  0  0  0  0
 21 41  1  0  0  0  0
 22 24  1  0  0  0  0
 22 42  1  0  0  0  0
 23 25  1  0  0  0  0
 23 43  1  0  0  0  0
 24 44  1  0  0  0  0
 25 45  1  0  0  0  0
 26 28  1  0  0  0  0
 26 46  1  0  0  0  0
 27 29  1  0  0  0  0
 27 47  1  0  0  0  0
 28 30  1  1  0  0  0
 28 48  1  0  0  0  0
 29 31  1  6  0  0  0
 29 49  1  0  0  0  0
 30 50  1  0  0  0  0
 30 51  1  0  0  0  0
 31 52  1  0  0  0  0
 31 53  1  0  0  0  0
 32 34  2  0  0  0  0
 32 58  1  0  0  0  0
 33 35  2  0  0  0  0
 33 59  1  0  0  0  0
 34 36  1  0  0  0  0
 35 37  1  0  0  0  0
 38 64  1  0  0  0  0
 38 65  1  0  0  0  0
 38 66  1  0  0  0  0
 39 67  1  0  0  0  0
 39 68  1  0  0  0  0
 39 69  1  0  0  0  0
M  END
> <PUBCHEM_COMPOUND_CID>
11541495

> <PUBCHEM_COMPOUND_CANONICALIZED>
1

> <PUBCHEM_CACTVS_COMPLEXITY>
801

> <PUBCHEM_CACTVS_HBOND_ACCEPTOR>
15

> <PUBCHEM_CACTVS_HBOND_DONOR>
8

> <PUBCHEM_CACTVS_ROTATABLE_BOND>
8

> <PUBCHEM_CACTVS_SUBSKEYS>
AAADceB7/ABAAAAAAAAAAAAAAAAAAWLAAAAkSAAAAAAAAAAB4AAAHgQYCAAACDzl1gaugBLIBgiqARV3VACABAQXkhAQUIG4dEADUApgwAAWQIgHAgDzAMHgYAQAAAAAAAAAAAAAAAAAAAAAAAAAAAAAAA==

> <PUBCHEM_IUPAC_OPENEYE_NAME>
1-[(2S,3R,4S,5R,6R)-2-[(2S,3R,4S,5R,6R)-3,5-dihydroxy-6-(hydroxymethyl)-4-[4-(methylcarbamoyl)triazol-1-yl]tetrahydropyran-2-yl]sulfanyl-3,5-dihydroxy-6-(hydroxymethyl)tetrahydropyran-4-yl]-N-methyl-triazole-4-carboxamide

> <PUBCHEM_IUPAC_CAS_NAME>
1-[(2S,3R,4S,5R,6R)-2-[[(2S,3R,4S,5R,6R)-3,5-dihydroxy-6-(hydroxymethyl)-4-[4-(methylcarbamoyl)-1-triazolyl]-2-oxanyl]thio]-3,5-dihydroxy-6-(hydroxymethyl)-4-oxanyl]-N-methyl-4-triazolecarboxamide

> <PUBCHEM_IUPAC_NAME_MARKUP>
1-[(2<I>S</I>,3<I>R</I>,4<I>S</I>,5<I>R</I>,6<I>R</I>)-2-[(2<I>S</I>,3<I>R</I>,4<I>S</I>,5<I>R</I>,6<I>R</I>)-3,5-dihydroxy-6-(hydroxymethyl)-4-[4-(methylcarbamoyl)triazol-1-yl]oxan-2-yl]sulfanyl-3,5-dihydroxy-6-(hydroxymethyl)oxan-4-yl]-<I>N</I>-methyltriazole-4-carboxamide

> <PUBCHEM_IUPAC_NAME>
1-[(2S,3R,4S,5R,6R)-2-[(2S,3R,4S,5R,6R)-3,5-dihydroxy-6-(hydroxymethyl)-4-[4-(methylcarbamoyl)triazol-1-yl]oxan-2-yl]sulfanyl-3,5-dihydroxy-6-(hydroxymethyl)oxan-4-yl]-N-methyltriazole-4-carboxamide

> <PUBCHEM_IUPAC_SYSTEMATIC_NAME>
1-[(2R,3R,4S,5R,6S)-2-(hydroxymethyl)-6-[(2S,3R,4S,5R,6R)-6-(hydroxymethyl)-4-[4-(methylcarbamoyl)-1,2,3-triazol-1-yl]-3,5-bis(oxidanyl)oxan-2-yl]sulfanyl-3,5-bis(oxidanyl)oxan-4-yl]-N-methyl-1,2,3-triazole-4-carboxamide

> <PUBCHEM_IUPAC_TRADITIONAL_NAME>
1-[(2S,3R,4S,5R,6R)-2-[[(2S,3R,4S,5R,6R)-3,5-dihydroxy-4-[4-(methylcarbamoyl)triazol-1-yl]-6-methylol-tetrahydropyran-2-yl]thio]-3,5-dihydroxy-6-methylol-tetrahydropyran-4-yl]-N-methyl-triazole-4-carboxamide

> <PUBCHEM_IUPAC_INCHI>
InChI=1S/C20H30N8O10S/c1-21-17(35)7-3-27(25-23-7)11-13(31)9(5-29)37-19(15(11)33)39-20-16(34)12(14(32)10(6-30)38-20)28-4-8(24-26-28)18(36)22-2/h3-4,9-16,19-20,29-34H,5-6H2,1-2H3,(H,21,35)(H,22,36)/t9-,10-,11+,12+,13+,14+,15-,16-,19+,20+/m1/s1

> <PUBCHEM_IUPAC_INCHIKEY>
CLQKYKMZHKKMTO-WJLPNDTHSA-N

> <PUBCHEM_XLOGP3_AA>
-4.1

> <PUBCHEM_EXACT_MASS>
574.18056036

> <PUBCHEM_MOLECULAR_FORMULA>
C20H30N8O10S

> <PUBCHEM_MOLECULAR_WEIGHT>
574.6

> <PUBCHEM_OPENEYE_CAN_SMILES>
CNC(=O)C1=CN(N=N1)C2C(C(OC(C2O)SC3C(C(C(C(O3)CO)O)N4C=C(N=N4)C(=O)NC)O)CO)O

> <PUBCHEM_OPENEYE_ISO_SMILES>
CNC(=O)C1=CN(N=N1)[C@H]2[C@H]([C@H](O[C@H]([C@@H]2O)S[C@H]3[C@@H]([C@H]([C@H]([C@H](O3)CO)O)N4C=C(N=N4)C(=O)NC)O)CO)O

> <PUBCHEM_CACTVS_TPSA>
285

> <PUBCHEM_MONOISOTOPIC_WEIGHT>
574.18056036

> <PUBCHEM_TOTAL_CHARGE>
0

> <PUBCHEM_HEAVY_ATOM_COUNT>
39

> <PUBCHEM_ATOM_DEF_STEREO_COUNT>
10

> <PUBCHEM_ATOM_UDEF_STEREO_COUNT>
0

> <PUBCHEM_BOND_DEF_STEREO_COUNT>
0

> <PUBCHEM_BOND_UDEF_STEREO_COUNT>
0

> <PUBCHEM_ISOTOPIC_ATOM_COUNT>
0

> <PUBCHEM_COMPONENT_COUNT>
1

> <PUBCHEM_CACTVS_TAUTO_COUNT>
-1

> <PUBCHEM_COORDINATE_TYPE>
1
5
255

> <PUBCHEM_BONDANNOTATIONS>
24  1  5
25  1  6
12  14  8
20  12  5
12  32  8
13  15  8
21  13  6
13  33  8
14  16  8
15  17  8
16  34  8
17  35  8
28  30  5
29  31  6
32  34  8
33  35  8
22  4  6
23  5  5
26  6  5
27  7  6

$$$$
