 
  -OEChem-10192103342D

 24 24  0     1  0  0  0  0  0999 V2000
    5.7166   -0.3681    0.0000 O   0  0  0  0  0  0  0  0  0  0  0  0
    4.6288    1.9798    0.0000 O   0  0  0  0  0  0  0  0  0  0  0  0
    6.8044    1.9798    0.0000 O   0  0  0  0  0  0  0  0  0  0  0  0
    4.4918   -1.7366    0.0000 O   0  0  0  0  0  0  0  0  0  0  0  0
    7.4767   -0.0893    0.0000 O   0  0  0  0  0  0  0  0  0  0  0  0
    2.5896   -2.3546    0.0000 O   0  0  0  0  0  0  0  0  0  0  0  0
    2.0544   -0.7073    0.0000 O   0  0  0  0  0  0  0  0  0  0  0  0
    4.9076    0.2197    0.0000 C   0  0  3  0  0  0  0  0  0  0  0  0
    5.2166    1.1708    0.0000 C   0  0  3  0  0  0  0  0  0  0  0  0
    3.9565   -0.0893    0.0000 C   0  0  0  0  0  0  0  0  0  0  0  0
    6.2166    1.1708    0.0000 C   0  0  3  0  0  0  0  0  0  0  0  0
    6.5256    0.2197    0.0000 C   0  0  0  0  0  0  0  0  0  0  0  0
    3.7486   -1.0674    0.0000 C   0  0  3  0  0  0  0  0  0  0  0  0
    2.7976   -1.3765    0.0000 C   0  0  0  0  0  0  0  0  0  0  0  0
    4.8106   -0.3926    0.0000 H   0  0  0  0  0  0  0  0  0  0  0  0
    5.4981    1.7232    0.0000 H   0  0  0  0  0  0  0  0  0  0  0  0
    3.8702    0.5247    0.0000 H   0  0  0  0  0  0  0  0  0  0  0  0
    3.3369   -0.0677    0.0000 H   0  0  0  0  0  0  0  0  0  0  0  0
    6.8290    1.0738    0.0000 H   0  0  0  0  0  0  0  0  0  0  0  0
    3.6197   -1.6739    0.0000 H   0  0  0  0  0  0  0  0  0  0  0  0
    4.8810    2.5462    0.0000 H   0  0  0  0  0  0  0  0  0  0  0  0
    7.4210    1.9150    0.0000 H   0  0  0  0  0  0  0  0  0  0  0  0
    4.3629   -2.3430    0.0000 H   0  0  0  0  0  0  0  0  0  0  0  0
    2.0000   -2.5462    0.0000 H   0  0  0  0  0  0  0  0  0  0  0  0
  1  8  1  0  0  0  0
  1 12  1  0  0  0  0
  2  9  1  0  0  0  0
  2 21  1  0  0  0  0
  3 11  1  0  0  0  0
  3 22  1  0  0  0  0
  4 13  1  0  0  0  0
  4 23  1  0  0  0  0
  5 12  2  0  0  0  0
  6 14  1  0  0  0  0
  6 24  1  0  0  0  0
  7 14  2  0  0  0  0
  8  9  1  0  0  0  0
  8 10  1  0  0  0  0
  8 15  1  0  0  0  0
  9 11  1  0  0  0  0
  9 16  1  0  0  0  0
 10 13  1  0  0  0  0
 10 17  1  0  0  0  0
 10 18  1  0  0  0  0
 11 12  1  0  0  0  0
 11 19  1  0  0  0  0
 13 14  1  0  0  0  0
 13 20  1  0  0  0  0
M  END
> <PUBCHEM_COMPOUND_CID>
130020481

> <PUBCHEM_COMPOUND_CANONICALIZED>
1

> <PUBCHEM_CACTVS_COMPLEXITY>
250

> <PUBCHEM_CACTVS_HBOND_ACCEPTOR>
7

> <PUBCHEM_CACTVS_HBOND_DONOR>
4

> <PUBCHEM_CACTVS_ROTATABLE_BOND>
3

> <PUBCHEM_CACTVS_SUBSKEYS>
AAADccBgOAAAAAAAAAAAAAAAAAAAASAAAAAAAAAAAAAAAAAAAAAAGgAACAAACBSggAIACAAABgAIAACQCAIAAAAAAAAAAAFAAAABEBYAAAACQAAFIAADAAHK7CTAAAAAAAAAAAAAAAAAAAAAAAAAAAAAAA==

> <PUBCHEM_IUPAC_OPENEYE_NAME>
3-(3,4-dihydroxy-5-oxo-tetrahydrofuran-2-yl)-2-hydroxy-propanoic acid

> <PUBCHEM_IUPAC_CAS_NAME>
3-(3,4-dihydroxy-5-oxo-2-oxolanyl)-2-hydroxypropanoic acid

> <PUBCHEM_IUPAC_NAME_MARKUP>
3-(3,4-dihydroxy-5-oxooxolan-2-yl)-2-hydroxypropanoic acid

> <PUBCHEM_IUPAC_NAME>
3-(3,4-dihydroxy-5-oxooxolan-2-yl)-2-hydroxypropanoic acid

> <PUBCHEM_IUPAC_SYSTEMATIC_NAME>
3-[3,4-bis(oxidanyl)-5-oxidanylidene-oxolan-2-yl]-2-oxidanyl-propanoic acid

> <PUBCHEM_IUPAC_TRADITIONAL_NAME>
3-(3,4-dihydroxy-5-keto-tetrahydrofuran-2-yl)-2-hydroxy-propionic acid

> <PUBCHEM_IUPAC_INCHI>
InChI=1S/C7H10O7/c8-2(6(11)12)1-3-4(9)5(10)7(13)14-3/h2-5,8-10H,1H2,(H,11,12)

> <PUBCHEM_IUPAC_INCHIKEY>
FHTUHRLYAPRFEZ-UHFFFAOYSA-N

> <PUBCHEM_XLOGP3_AA>
-2

> <PUBCHEM_EXACT_MASS>
206.04265265

> <PUBCHEM_MOLECULAR_FORMULA>
C7H10O7

> <PUBCHEM_MOLECULAR_WEIGHT>
206.15

> <PUBCHEM_OPENEYE_CAN_SMILES>
C(C1C(C(C(=O)O1)O)O)C(C(=O)O)O

> <PUBCHEM_OPENEYE_ISO_SMILES>
C(C1C(C(C(=O)O1)O)O)C(C(=O)O)O

> <PUBCHEM_CACTVS_TPSA>
124

> <PUBCHEM_MONOISOTOPIC_WEIGHT>
206.04265265

> <PUBCHEM_TOTAL_CHARGE>
0

> <PUBCHEM_HEAVY_ATOM_COUNT>
14

> <PUBCHEM_ATOM_DEF_STEREO_COUNT>
0

> <PUBCHEM_ATOM_UDEF_STEREO_COUNT>
4

> <PUBCHEM_BOND_DEF_STEREO_COUNT>
0

> <PUBCHEM_BOND_UDEF_STEREO_COUNT>
0

> <PUBCHEM_ISOTOPIC_ATOM_COUNT>
0

> <PUBCHEM_COMPONENT_COUNT>
1

> <PUBCHEM_CACTVS_TAUTO_COUNT>
-1

> <PUBCHEM_COORDINATE_TYPE>
1
5
255

> <PUBCHEM_BONDANNOTATIONS>
9  2  3
11  3  3
13  4  3
8  10  3

$$$$
