 
  -OEChem-10192103492D

 65 67  0     1  0  0  0  0  0999 V2000
    6.1084    1.0378    0.0000 O   0  0  0  0  0  0  0  0  0  0  0  0
    7.6962    0.2288    0.0000 O   0  0  0  0  0  0  0  0  0  0  0  0
    7.1962   -2.3100    0.0000 O   0  0  0  0  0  0  0  0  0  0  0  0
    5.4641   -2.3100    0.0000 O   0  0  0  0  0  0  0  0  0  0  0  0
    5.4361   -1.0313    0.0000 O   0  0  0  0  0  0  0  0  0  0  0  0
    8.0974    1.2469    0.0000 O   0  0  0  0  0  0  0  0  0  0  0  0
    4.9328    2.6559    0.0000 O   0  0  0  0  0  0  0  0  0  0  0  0
    5.4641   -5.3100    0.0000 O   0  0  0  0  0  0  0  0  0  0  0  0
    3.7320   -4.3100    0.0000 O   0  0  0  0  0  0  0  0  0  0  0  0
    9.6994   -0.3621    0.0000 O   0  0  0  0  0  0  0  0  0  0  0  0
    8.9109    3.0740    0.0000 N   0  0  0  0  0  0  0  0  0  0  0  0
    5.7463    4.4830    0.0000 N   0  0  0  0  0  0  0  0  0  0  0  0
    7.1962   -4.3100    0.0000 N   0  0  0  0  0  0  0  0  0  0  0  0
    3.7320   -1.3100    0.0000 N   0  0  0  0  0  0  0  0  0  0  0  0
    9.3176    3.9875    0.0000 N   0  3  0  0  0  0  0  0  0  0  0  0
    6.1530    5.3965    0.0000 N   0  3  0  0  0  0  0  0  0  0  0  0
    7.1962   -5.3100    0.0000 N   0  3  0  0  0  0  0  0  0  0  0  0
    2.8660   -0.8100    0.0000 N   0  3  0  0  0  0  0  0  0  0  0  0
    9.7244    4.9011    0.0000 N   0  5  0  0  0  0  0  0  0  0  0  0
    6.5597    6.3100    0.0000 N   0  5  0  0  0  0  0  0  0  0  0  0
    7.1962   -6.3100    0.0000 N   0  5  0  0  0  0  0  0  0  0  0  0
    2.0000   -0.3100    0.0000 N   0  5  0  0  0  0  0  0  0  0  0  0
    6.5151    1.9514    0.0000 C   0  0  0  0  0  0  0  0  0  0  0  0
    7.1962   -1.3100    0.0000 C   0  0  1  0  0  0  0  0  0  0  0  0
    6.3871   -0.7223    0.0000 C   0  0  2  0  0  0  0  0  0  0  0  0
    6.6962    0.2288    0.0000 C   0  0  2  0  0  0  0  0  0  0  0  0
    7.5096    2.0559    0.0000 C   0  0  1  0  0  0  0  0  0  0  0  0
    5.9273    2.7604    0.0000 C   0  0  2  0  0  0  0  0  0  0  0  0
    8.0052   -0.7223    0.0000 C   0  0  1  0  0  0  0  0  0  0  0  0
    7.9164    2.9694    0.0000 C   0  0  2  0  0  0  0  0  0  0  0  0
    6.3341    3.6739    0.0000 C   0  0  1  0  0  0  0  0  0  0  0  0
    7.3286    3.7785    0.0000 C   0  0  0  0  0  0  0  0  0  0  0  0
    6.3301   -2.8100    0.0000 C   0  0  1  0  0  0  0  0  0  0  0  0
    6.3301   -3.8100    0.0000 C   0  0  1  0  0  0  0  0  0  0  0  0
    5.4641   -4.3100    0.0000 C   0  0  2  0  0  0  0  0  0  0  0  0
    4.5981   -3.8100    0.0000 C   0  0  1  0  0  0  0  0  0  0  0  0
    4.5981   -2.8100    0.0000 C   0  0  2  0  0  0  0  0  0  0  0  0
    8.9562   -1.0313    0.0000 C   0  0  0  0  0  0  0  0  0  0  0  0
    3.7320   -2.3100    0.0000 C   0  0  0  0  0  0  0  0  0  0  0  0
    6.8795    1.4498    0.0000 H   0  0  0  0  0  0  0  0  0  0  0  0
    7.7486   -1.5915    0.0000 H   0  0  0  0  0  0  0  0  0  0  0  0
    5.9487   -0.2838    0.0000 H   0  0  0  0  0  0  0  0  0  0  0  0
    6.9776    0.7812    0.0000 H   0  0  0  0  0  0  0  0  0  0  0  0
    8.1262    2.1207    0.0000 H   0  0  0  0  0  0  0  0  0  0  0  0
    5.6751    2.1940    0.0000 H   0  0  0  0  0  0  0  0  0  0  0  0
    8.4436   -0.2838    0.0000 H   0  0  0  0  0  0  0  0  0  0  0  0
    8.1685    3.5358    0.0000 H   0  0  0  0  0  0  0  0  0  0  0  0
    6.5862    4.2403    0.0000 H   0  0  0  0  0  0  0  0  0  0  0  0
    7.8858    4.0502    0.0000 H   0  0  0  0  0  0  0  0  0  0  0  0
    7.1577    4.3744    0.0000 H   0  0  0  0  0  0  0  0  0  0  0  0
    6.3301   -2.1900    0.0000 H   0  0  0  0  0  0  0  0  0  0  0  0
    6.8671   -3.5000    0.0000 H   0  0  0  0  0  0  0  0  0  0  0  0
    6.0010   -4.6200    0.0000 H   0  0  0  0  0  0  0  0  0  0  0  0
    4.5981   -4.4300    0.0000 H   0  0  0  0  0  0  0  0  0  0  0  0
    4.5981   -2.1900    0.0000 H   0  0  0  0  0  0  0  0  0  0  0  0
    8.6652   -1.5787    0.0000 H   0  0  0  0  0  0  0  0  0  0  0  0
    9.4448   -1.4130    0.0000 H   0  0  0  0  0  0  0  0  0  0  0  0
    4.9753   -0.6164    0.0000 H   0  0  0  0  0  0  0  0  0  0  0  0
    8.7140    1.3117    0.0000 H   0  0  0  0  0  0  0  0  0  0  0  0
    4.5684    3.1574    0.0000 H   0  0  0  0  0  0  0  0  0  0  0  0
    3.1215   -2.2024    0.0000 H   0  0  0  0  0  0  0  0  0  0  0  0
    3.5200   -2.8926    0.0000 H   0  0  0  0  0  0  0  0  0  0  0  0
    4.9272   -5.6200    0.0000 H   0  0  0  0  0  0  0  0  0  0  0  0
    3.1951   -4.0000    0.0000 H   0  0  0  0  0  0  0  0  0  0  0  0
   10.2890   -0.5537    0.0000 H   0  0  0  0  0  0  0  0  0  0  0  0
  1 23  1  0  0  0  0
 26  1  1  6  0  0  0
  2 26  1  0  0  0  0
  2 29  1  0  0  0  0
 24  3  1  1  0  0  0
 33  3  1  6  0  0  0
  4 33  1  0  0  0  0
  4 37  1  0  0  0  0
 25  5  1  1  0  0  0
  5 58  1  0  0  0  0
 27  6  1  1  0  0  0
  6 59  1  0  0  0  0
 28  7  1  1  0  0  0
  7 60  1  0  0  0  0
 35  8  1  1  0  0  0
  8 63  1  0  0  0  0
 36  9  1  6  0  0  0
  9 64  1  0  0  0  0
 10 38  1  0  0  0  0
 10 65  1  0  0  0  0
 11 15  2  0  0  0  0
 30 11  1  6  0  0  0
 12 16  2  0  0  0  0
 31 12  1  6  0  0  0
 13 17  2  0  0  0  0
 34 13  1  6  0  0  0
 14 18  2  0  0  0  0
 14 39  1  0  0  0  0
 15 19  2  0  0  0  0
 16 20  2  0  0  0  0
 17 21  2  0  0  0  0
 18 22  2  0  0  0  0
 23 27  1  0  0  0  0
 23 28  1  0  0  0  0
 23 40  1  0  0  0  0
 24 25  1  0  0  0  0
 24 29  1  0  0  0  0
 24 41  1  0  0  0  0
 25 26  1  0  0  0  0
 25 42  1  0  0  0  0
 26 43  1  0  0  0  0
 27 30  1  0  0  0  0
 27 44  1  0  0  0  0
 28 31  1  0  0  0  0
 28 45  1  0  0  0  0
 29 38  1  6  0  0  0
 29 46  1  0  0  0  0
 30 32  1  0  0  0  0
 30 47  1  0  0  0  0
 31 32  1  0  0  0  0
 31 48  1  0  0  0  0
 32 49  1  0  0  0  0
 32 50  1  0  0  0  0
 33 34  1  0  0  0  0
 33 51  1  0  0  0  0
 34 35  1  0  0  0  0
 34 52  1  0  0  0  0
 35 36  1  0  0  0  0
 35 53  1  0  0  0  0
 36 37  1  0  0  0  0
 36 54  1  0  0  0  0
 37 39  1  6  0  0  0
 37 55  1  0  0  0  0
 38 56  1  0  0  0  0
 38 57  1  0  0  0  0
 39 61  1  0  0  0  0
 39 62  1  0  0  0  0
M  CHG  8  15   1  16   1  17   1  18   1  19  -1  20  -1  21  -1  22  -1
M  END
> <PUBCHEM_COMPOUND_CID>
101051061

> <PUBCHEM_COMPOUND_CANONICALIZED>
1

> <PUBCHEM_CACTVS_COMPLEXITY>
1020

> <PUBCHEM_CACTVS_HBOND_ACCEPTOR>
18

> <PUBCHEM_CACTVS_HBOND_DONOR>
6

> <PUBCHEM_CACTVS_ROTATABLE_BOND>
10

> <PUBCHEM_CACTVS_SUBSKEYS>
AAADceB7/AAAAAAAAAAAAAAAAAAAASAAAAA0QAAAAAAAAAAAAAAAHgAICAAACDzxgAcACAAABgACAAAAAAAAAAAAAAAAAAAAAAATEAIAwAAjQAAHAAAHAAHwcA0AAAAAAAAAAAAAgAAUCACgAAAAAAAAAA==

> <PUBCHEM_IUPAC_OPENEYE_NAME>
(2S,3S,4R,5R,6R)-5-azido-2-(azidomethyl)-6-[(2R,3S,4R,5S)-5-[(2R,3S,5R,6S)-3,5-diazido-2,6-dihydroxy-cyclohexoxy]-4-hydroxy-2-(hydroxymethyl)tetrahydrofuran-3-yl]oxy-tetrahydropyran-3,4-diol

> <PUBCHEM_IUPAC_CAS_NAME>
(2S,3S,4R,5R,6R)-5-azido-2-(azidomethyl)-6-[[(2R,3S,4R,5S)-5-[(2R,3S,5R,6S)-3,5-diazido-2,6-dihydroxycyclohexyl]oxy-4-hydroxy-2-(hydroxymethyl)-3-oxolanyl]oxy]oxane-3,4-diol

> <PUBCHEM_IUPAC_NAME_MARKUP>
(2<I>S</I>,3<I>S</I>,4<I>R</I>,5<I>R</I>,6<I>R</I>)-5-azido-2-(azidomethyl)-6-[(2<I>R</I>,3<I>S</I>,4<I>R</I>,5<I>S</I>)-5-[(2<I>R</I>,3<I>S</I>,5<I>R</I>,6<I>S</I>)-3,5-diazido-2,6-dihydroxycyclohexyl]oxy-4-hydroxy-2-(hydroxymethyl)oxolan-3-yl]oxyoxane-3,4-diol

> <PUBCHEM_IUPAC_NAME>
(2S,3S,4R,5R,6R)-5-azido-2-(azidomethyl)-6-[(2R,3S,4R,5S)-5-[(2R,3S,5R,6S)-3,5-diazido-2,6-dihydroxycyclohexyl]oxy-4-hydroxy-2-(hydroxymethyl)oxolan-3-yl]oxyoxane-3,4-diol

> <PUBCHEM_IUPAC_SYSTEMATIC_NAME>
(2S,3S,4R,5R,6R)-5-azido-2-(azidomethyl)-6-[(2R,3S,4R,5S)-5-[(2R,3S,5R,6S)-3,5-diazido-2,6-bis(oxidanyl)cyclohexyl]oxy-2-(hydroxymethyl)-4-oxidanyl-oxolan-3-yl]oxy-oxane-3,4-diol

> <PUBCHEM_IUPAC_TRADITIONAL_NAME>
(2S,3S,4R,5R,6R)-5-azido-2-(azidomethyl)-6-[(2R,3S,4R,5S)-5-[(2R,3S,5R,6S)-3,5-diazido-2,6-dihydroxy-cyclohexoxy]-4-hydroxy-2-methylol-tetrahydrofuran-3-yl]oxy-tetrahydropyran-3,4-diol

> <PUBCHEM_IUPAC_INCHI>
InChI=1S/C17H26N12O10/c18-26-22-2-6-11(33)12(34)8(25-29-21)16(36-6)38-14-7(3-30)37-17(13(14)35)39-15-9(31)4(23-27-19)1-5(10(15)32)24-28-20/h4-17,30-35H,1-3H2/t4-,5+,6-,7+,8+,9+,10-,11+,12+,13+,14+,15?,16+,17-/m0/s1

> <PUBCHEM_IUPAC_INCHIKEY>
PUCPBAXXLXWIKH-NPXXYGQBSA-N

> <PUBCHEM_XLOGP3_AA>
-0.1

> <PUBCHEM_EXACT_MASS>
558.18948507

> <PUBCHEM_MOLECULAR_FORMULA>
C17H26N12O10

> <PUBCHEM_MOLECULAR_WEIGHT>
558.5

> <PUBCHEM_OPENEYE_CAN_SMILES>
C1C(C(C(C(C1N=[N+]=[N-])O)OC2C(C(C(O2)CO)OC3C(C(C(C(O3)CN=[N+]=[N-])O)O)N=[N+]=[N-])O)O)N=[N+]=[N-]

> <PUBCHEM_OPENEYE_ISO_SMILES>
C1[C@H]([C@@H](C([C@@H]([C@H]1N=[N+]=[N-])O)O[C@H]2[C@@H]([C@@H]([C@H](O2)CO)O[C@@H]3[C@@H]([C@H]([C@@H]([C@@H](O3)CN=[N+]=[N-])O)O)N=[N+]=[N-])O)O)N=[N+]=[N-]

> <PUBCHEM_CACTVS_TPSA>
216

> <PUBCHEM_MONOISOTOPIC_WEIGHT>
558.18948507

> <PUBCHEM_TOTAL_CHARGE>
0

> <PUBCHEM_HEAVY_ATOM_COUNT>
39

> <PUBCHEM_ATOM_DEF_STEREO_COUNT>
13

> <PUBCHEM_ATOM_UDEF_STEREO_COUNT>
0

> <PUBCHEM_BOND_DEF_STEREO_COUNT>
0

> <PUBCHEM_BOND_UDEF_STEREO_COUNT>
0

> <PUBCHEM_ISOTOPIC_ATOM_COUNT>
0

> <PUBCHEM_COMPONENT_COUNT>
1

> <PUBCHEM_CACTVS_TAUTO_COUNT>
-1

> <PUBCHEM_COORDINATE_TYPE>
1
5
255

> <PUBCHEM_BONDANNOTATIONS>
26  1  6
30  11  6
31  12  6
34  13  6
29  38  6
24  3  5
33  3  6
37  39  6
25  5  5
27  6  5
28  7  5
35  8  5
36  9  6

$$$$
