 
  -OEChem-10192104012D

 70 73  0     1  0  0  0  0  0999 V2000
    5.4641    0.1482    0.0000 O   0  0  0  0  0  0  0  0  0  0  0  0
    3.7320   -2.8518    0.0000 O   0  0  0  0  0  0  0  0  0  0  0  0
   10.8600   -3.5838    0.0000 O   0  0  0  0  0  0  0  0  0  0  0  0
   10.8600   -0.1197    0.0000 O   0  0  0  0  0  0  0  0  0  0  0  0
    8.5190    2.7550    0.0000 O   0  0  0  0  0  0  0  0  0  0  0  0
    3.7320    0.1482    0.0000 O   0  0  0  0  0  0  0  0  0  0  0  0
    2.8660   -1.3518    0.0000 O   0  0  0  0  0  0  0  0  0  0  0  0
   12.3600   -2.7178    0.0000 O   0  0  0  0  0  0  0  0  0  0  0  0
   12.3600   -0.9858    0.0000 O   0  0  0  0  0  0  0  0  0  0  0  0
    6.8726    3.2931    0.0000 O   0  0  0  0  0  0  0  0  0  0  0  0
    7.2764   -1.0470    0.0000 C   0  0  1  0  0  0  0  0  0  0  0  0
    7.8600   -1.8518    0.0000 C   0  0  1  0  0  0  0  0  0  0  0  0
    6.3301   -1.3518    0.0000 C   0  0  0  0  0  0  0  0  0  0  0  0
    7.2764   -2.6565    0.0000 C   0  0  0  0  0  0  0  0  0  0  0  0
    6.3301   -2.3518    0.0000 C   0  0  0  0  0  0  0  0  0  0  0  0
    7.5870   -0.0965    0.0000 C   0  0  0  0  0  0  0  0  0  0  0  0
    8.8600   -1.8518    0.0000 C   0  0  0  0  0  0  0  0  0  0  0  0
    5.4641   -0.8518    0.0000 C   0  0  0  0  0  0  0  0  0  0  0  0
    5.4641   -2.8518    0.0000 C   0  0  0  0  0  0  0  0  0  0  0  0
    7.5870   -3.6070    0.0000 C   0  0  0  0  0  0  0  0  0  0  0  0
    9.3600   -0.9858    0.0000 C   0  0  0  0  0  0  0  0  0  0  0  0
    9.3600   -2.7178    0.0000 C   0  0  0  0  0  0  0  0  0  0  0  0
    8.5655    0.1097    0.0000 C   0  0  0  0  0  0  0  0  0  0  0  0
    6.9192    0.6478    0.0000 C   0  0  0  0  0  0  0  0  0  0  0  0
    4.5981   -1.3518    0.0000 C   0  0  0  0  0  0  0  0  0  0  0  0
    4.5981   -2.3518    0.0000 C   0  0  0  0  0  0  0  0  0  0  0  0
   10.3600   -2.7178    0.0000 C   0  0  0  0  0  0  0  0  0  0  0  0
   10.3600   -0.9858    0.0000 C   0  0  0  0  0  0  0  0  0  0  0  0
    8.8762    1.0602    0.0000 C   0  0  0  0  0  0  0  0  0  0  0  0
    7.2298    1.5983    0.0000 C   0  0  0  0  0  0  0  0  0  0  0  0
   10.8600   -1.8518    0.0000 C   0  0  0  0  0  0  0  0  0  0  0  0
    8.2083    1.8045    0.0000 C   0  0  0  0  0  0  0  0  0  0  0  0
    4.5981    0.6482    0.0000 C   0  0  0  0  0  0  0  0  0  0  0  0
    2.8660   -2.3518    0.0000 C   0  0  0  0  0  0  0  0  0  0  0  0
    4.5981    1.6482    0.0000 C   0  0  0  0  0  0  0  0  0  0  0  0
   11.8600   -3.5838    0.0000 C   0  0  0  0  0  0  0  0  0  0  0  0
   11.8600   -0.1197    0.0000 C   0  0  0  0  0  0  0  0  0  0  0  0
    2.0000   -2.8518    0.0000 C   0  0  0  0  0  0  0  0  0  0  0  0
    7.8512    3.4993    0.0000 C   0  0  0  0  0  0  0  0  0  0  0  0
   12.3600   -4.4499    0.0000 C   0  0  0  0  0  0  0  0  0  0  0  0
   12.3600    0.7463    0.0000 C   0  0  0  0  0  0  0  0  0  0  0  0
    8.1618    4.4499    0.0000 C   0  0  0  0  0  0  0  0  0  0  0  0
    7.8888   -0.9509    0.0000 H   0  0  0  0  0  0  0  0  0  0  0  0
    8.1417   -2.4041    0.0000 H   0  0  0  0  0  0  0  0  0  0  0  0
    5.4641   -3.4718    0.0000 H   0  0  0  0  0  0  0  0  0  0  0  0
    7.1730   -4.0685    0.0000 H   0  0  0  0  0  0  0  0  0  0  0  0
    8.1937   -3.7349    0.0000 H   0  0  0  0  0  0  0  0  0  0  0  0
    9.0500   -0.4488    0.0000 H   0  0  0  0  0  0  0  0  0  0  0  0
    9.0500   -3.2547    0.0000 H   0  0  0  0  0  0  0  0  0  0  0  0
    8.9796   -0.3518    0.0000 H   0  0  0  0  0  0  0  0  0  0  0  0
    6.3125    0.5199    0.0000 H   0  0  0  0  0  0  0  0  0  0  0  0
    4.0611   -1.0418    0.0000 H   0  0  0  0  0  0  0  0  0  0  0  0
    9.4828    1.1881    0.0000 H   0  0  0  0  0  0  0  0  0  0  0  0
    6.8158    2.0598    0.0000 H   0  0  0  0  0  0  0  0  0  0  0  0
   11.4800   -1.8518    0.0000 H   0  0  0  0  0  0  0  0  0  0  0  0
    5.2181    1.6482    0.0000 H   0  0  0  0  0  0  0  0  0  0  0  0
    4.5981    2.2682    0.0000 H   0  0  0  0  0  0  0  0  0  0  0  0
    3.9781    1.6482    0.0000 H   0  0  0  0  0  0  0  0  0  0  0  0
    1.6900   -2.3148    0.0000 H   0  0  0  0  0  0  0  0  0  0  0  0
    1.4631   -3.1618    0.0000 H   0  0  0  0  0  0  0  0  0  0  0  0
    2.3100   -3.3887    0.0000 H   0  0  0  0  0  0  0  0  0  0  0  0
   11.8230   -4.7599    0.0000 H   0  0  0  0  0  0  0  0  0  0  0  0
   12.6700   -4.9868    0.0000 H   0  0  0  0  0  0  0  0  0  0  0  0
   12.8969   -4.1399    0.0000 H   0  0  0  0  0  0  0  0  0  0  0  0
   12.8969    0.4363    0.0000 H   0  0  0  0  0  0  0  0  0  0  0  0
   12.6700    1.2832    0.0000 H   0  0  0  0  0  0  0  0  0  0  0  0
   11.8230    1.0563    0.0000 H   0  0  0  0  0  0  0  0  0  0  0  0
    8.7511    4.2572    0.0000 H   0  0  0  0  0  0  0  0  0  0  0  0
    8.3544    5.0392    0.0000 H   0  0  0  0  0  0  0  0  0  0  0  0
    7.5725    4.6425    0.0000 H   0  0  0  0  0  0  0  0  0  0  0  0
  1 18  1  0  0  0  0
  1 33  1  0  0  0  0
  2 26  1  0  0  0  0
  2 34  1  0  0  0  0
  3 27  1  0  0  0  0
  3 36  1  0  0  0  0
  4 28  1  0  0  0  0
  4 37  1  0  0  0  0
  5 32  1  0  0  0  0
  5 39  1  0  0  0  0
  6 33  2  0  0  0  0
  7 34  2  0  0  0  0
  8 36  2  0  0  0  0
  9 37  2  0  0  0  0
 10 39  2  0  0  0  0
 11 12  1  0  0  0  0
 11 13  1  0  0  0  0
 11 16  1  1  0  0  0
 11 43  1  0  0  0  0
 12 14  1  0  0  0  0
 12 17  1  6  0  0  0
 12 44  1  0  0  0  0
 13 15  2  0  0  0  0
 13 18  1  0  0  0  0
 14 15  1  0  0  0  0
 14 20  2  0  0  0  0
 15 19  1  0  0  0  0
 16 23  2  0  0  0  0
 16 24  1  0  0  0  0
 17 21  2  0  0  0  0
 17 22  1  0  0  0  0
 18 25  2  0  0  0  0
 19 26  2  0  0  0  0
 19 45  1  0  0  0  0
 20 46  1  0  0  0  0
 20 47  1  0  0  0  0
 21 28  1  0  0  0  0
 21 48  1  0  0  0  0
 22 27  2  0  0  0  0
 22 49  1  0  0  0  0
 23 29  1  0  0  0  0
 23 50  1  0  0  0  0
 24 30  2  0  0  0  0
 24 51  1  0  0  0  0
 25 26  1  0  0  0  0
 25 52  1  0  0  0  0
 27 31  1  0  0  0  0
 28 31  2  0  0  0  0
 29 32  2  0  0  0  0
 29 53  1  0  0  0  0
 30 32  1  0  0  0  0
 30 54  1  0  0  0  0
 31 55  1  0  0  0  0
 33 35  1  0  0  0  0
 34 38  1  0  0  0  0
 35 56  1  0  0  0  0
 35 57  1  0  0  0  0
 35 58  1  0  0  0  0
 36 40  1  0  0  0  0
 37 41  1  0  0  0  0
 38 59  1  0  0  0  0
 38 60  1  0  0  0  0
 38 61  1  0  0  0  0
 39 42  1  0  0  0  0
 40 62  1  0  0  0  0
 40 63  1  0  0  0  0
 40 64  1  0  0  0  0
 41 65  1  0  0  0  0
 41 66  1  0  0  0  0
 41 67  1  0  0  0  0
 42 68  1  0  0  0  0
 42 69  1  0  0  0  0
 42 70  1  0  0  0  0
M  END
> <PUBCHEM_COMPOUND_CID>
68020734

> <PUBCHEM_COMPOUND_CANONICALIZED>
1

> <PUBCHEM_CACTVS_COMPLEXITY>
1040

> <PUBCHEM_CACTVS_HBOND_ACCEPTOR>
10

> <PUBCHEM_CACTVS_HBOND_DONOR>
0

> <PUBCHEM_CACTVS_ROTATABLE_BOND>
12

> <PUBCHEM_CACTVS_SUBSKEYS>
AAADceB8PAAAAAAAAAAAAAAAAAAAAYAAAAAwYMAAAAAAAGABUAAAGgAAAAAADQSAmAAyDoAABACIAiDSCAACCAAgIAAIiAAGCIgMJyKEMRqCOiClwBUIqAeA4PwOoAABCAAYAABAAAIQADAAAQAACAAAAA==

> <PUBCHEM_IUPAC_OPENEYE_NAME>
[4-[(1R,2R)-5,7-diacetoxy-2-(3,5-diacetoxyphenyl)-3-methylene-indan-1-yl]phenyl] acetate

> <PUBCHEM_IUPAC_CAS_NAME>
acetic acid [4-[(1R,2R)-5,7-diacetyloxy-2-(3,5-diacetyloxyphenyl)-3-methylene-1,2-dihydroinden-1-yl]phenyl] ester

> <PUBCHEM_IUPAC_NAME_MARKUP>
[4-[(1<I>R</I>,2<I>R</I>)-5,7-diacetyloxy-2-(3,5-diacetyloxyphenyl)-3-methylidene-1,2-dihydroinden-1-yl]phenyl] acetate

> <PUBCHEM_IUPAC_NAME>
[4-[(1R,2R)-5,7-diacetyloxy-2-(3,5-diacetyloxyphenyl)-3-methylidene-1,2-dihydroinden-1-yl]phenyl] acetate

> <PUBCHEM_IUPAC_SYSTEMATIC_NAME>
[4-[(1R,2R)-5,7-diacetyloxy-2-(3,5-diacetyloxyphenyl)-3-methylidene-1,2-dihydroinden-1-yl]phenyl] ethanoate

> <PUBCHEM_IUPAC_TRADITIONAL_NAME>
acetic acid [4-[(1R,2R)-5,7-diacetoxy-2-(3,5-diacetoxyphenyl)-3-methylene-indan-1-yl]phenyl] ester

> <PUBCHEM_IUPAC_INCHI>
InChI=1S/C32H28O10/c1-16-28-14-27(41-20(5)36)15-29(42-21(6)37)32(28)31(22-7-9-24(10-8-22)38-17(2)33)30(16)23-11-25(39-18(3)34)13-26(12-23)40-19(4)35/h7-15,30-31H,1H2,2-6H3/t30-,31-/m0/s1

> <PUBCHEM_IUPAC_INCHIKEY>
HIDNUKIPNIBIAP-CONSDPRKSA-N

> <PUBCHEM_XLOGP3_AA>
4.3

> <PUBCHEM_EXACT_MASS>
572.16824709

> <PUBCHEM_MOLECULAR_FORMULA>
C32H28O10

> <PUBCHEM_MOLECULAR_WEIGHT>
572.6

> <PUBCHEM_OPENEYE_CAN_SMILES>
CC(=O)OC1=CC=C(C=C1)C2C(C(=C)C3=C2C(=CC(=C3)OC(=O)C)OC(=O)C)C4=CC(=CC(=C4)OC(=O)C)OC(=O)C

> <PUBCHEM_OPENEYE_ISO_SMILES>
CC(=O)OC1=CC=C(C=C1)[C@H]2[C@@H](C(=C)C3=C2C(=CC(=C3)OC(=O)C)OC(=O)C)C4=CC(=CC(=C4)OC(=O)C)OC(=O)C

> <PUBCHEM_CACTVS_TPSA>
132

> <PUBCHEM_MONOISOTOPIC_WEIGHT>
572.16824709

> <PUBCHEM_TOTAL_CHARGE>
0

> <PUBCHEM_HEAVY_ATOM_COUNT>
42

> <PUBCHEM_ATOM_DEF_STEREO_COUNT>
2

> <PUBCHEM_ATOM_UDEF_STEREO_COUNT>
0

> <PUBCHEM_BOND_DEF_STEREO_COUNT>
0

> <PUBCHEM_BOND_UDEF_STEREO_COUNT>
0

> <PUBCHEM_ISOTOPIC_ATOM_COUNT>
0

> <PUBCHEM_COMPONENT_COUNT>
1

> <PUBCHEM_CACTVS_TAUTO_COUNT>
-1

> <PUBCHEM_COORDINATE_TYPE>
1
5
255

> <PUBCHEM_BONDANNOTATIONS>
11  16  5
12  17  6
13  15  8
13  18  8
15  19  8
16  23  8
16  24  8
17  21  8
17  22  8
18  25  8
19  26  8
21  28  8
22  27  8
23  29  8
24  30  8
25  26  8
27  31  8
28  31  8
29  32  8
30  32  8

$$$$
