 
  -OEChem-10192103492D

 42 46  0     1  0  0  0  0  0999 V2000
    7.3287    3.3115    0.0000 O   0  0  0  0  0  0  0  0  0  0  0  0
    8.2309    2.3969    0.0000 O   0  0  0  0  0  0  0  0  0  0  0  0
    6.8671   -0.0015    0.0000 O   0  0  0  0  0  0  0  0  0  0  0  0
    5.1350   -0.0015    0.0000 O   0  0  0  0  0  0  0  0  0  0  0  0
    6.8671   -2.0015    0.0000 O   0  0  0  0  0  0  0  0  0  0  0  0
    5.1350   -3.0015    0.0000 O   0  0  0  0  0  0  0  0  0  0  0  0
    3.4030   -2.0015    0.0000 O   0  0  0  0  0  0  0  0  0  0  0  0
    2.5369   -0.5015    0.0000 O   0  0  0  0  0  0  0  0  0  0  0  0
    8.4705    2.1651    0.0000 C   0  0  3  0  0  0  0  0  0  0  0  0
    7.5786    1.7129    0.0000 C   0  0  3  0  0  0  0  0  0  0  0  0
    8.3161    3.1531    0.0000 C   0  0  3  0  0  0  0  0  0  0  0  0
    9.2494    2.7929    0.0000 C   0  0  3  0  0  0  0  0  0  0  0  0
    6.8729    2.4215    0.0000 C   0  0  3  0  0  0  0  0  0  0  0  0
    6.1556    1.7129    0.0000 C   0  0  3  0  0  0  0  0  0  0  0  0
    6.8671    0.9985    0.0000 C   0  0  3  0  0  0  0  0  0  0  0  0
    7.1992    2.0368    0.0000 C   0  0  0  0  0  0  0  0  0  0  0  0
    6.0010   -0.5015    0.0000 C   0  0  3  0  0  0  0  0  0  0  0  0
    6.0010   -1.5015    0.0000 C   0  0  3  0  0  0  0  0  0  0  0  0
    5.1350   -2.0015    0.0000 C   0  0  3  0  0  0  0  0  0  0  0  0
    4.2690   -0.5015    0.0000 C   0  0  3  0  0  0  0  0  0  0  0  0
    4.2690   -1.5015    0.0000 C   0  0  3  0  0  0  0  0  0  0  0  0
    3.4030   -0.0015    0.0000 C   0  0  0  0  0  0  0  0  0  0  0  0
    7.9187    2.4477    0.0000 H   0  0  0  0  0  0  0  0  0  0  0  0
    7.9430    1.2113    0.0000 H   0  0  0  0  0  0  0  0  0  0  0  0
    8.4777    3.7516    0.0000 H   0  0  0  0  0  0  0  0  0  0  0  0
    9.8620    2.8886    0.0000 H   0  0  0  0  0  0  0  0  0  0  0  0
    6.3728    2.7879    0.0000 H   0  0  0  0  0  0  0  0  0  0  0  0
    5.5356    1.7154    0.0000 H   0  0  0  0  0  0  0  0  0  0  0  0
    7.4401    0.7618    0.0000 H   0  0  0  0  0  0  0  0  0  0  0  0
    7.0693    1.4306    0.0000 H   0  0  0  0  0  0  0  0  0  0  0  0
    7.0051    2.6256    0.0000 H   0  0  0  0  0  0  0  0  0  0  0  0
    6.5380   -0.8115    0.0000 H   0  0  0  0  0  0  0  0  0  0  0  0
    6.0010   -2.1215    0.0000 H   0  0  0  0  0  0  0  0  0  0  0  0
    4.5981   -2.3115    0.0000 H   0  0  0  0  0  0  0  0  0  0  0  0
    4.2690    0.1185    0.0000 H   0  0  0  0  0  0  0  0  0  0  0  0
    3.7320   -1.1915    0.0000 H   0  0  0  0  0  0  0  0  0  0  0  0
    6.8671   -2.6215    0.0000 H   0  0  0  0  0  0  0  0  0  0  0  0
    3.8015    0.4734    0.0000 H   0  0  0  0  0  0  0  0  0  0  0  0
    3.0044    0.4734    0.0000 H   0  0  0  0  0  0  0  0  0  0  0  0
    4.5981   -3.3115    0.0000 H   0  0  0  0  0  0  0  0  0  0  0  0
    3.4030   -2.6215    0.0000 H   0  0  0  0  0  0  0  0  0  0  0  0
    2.0000   -0.1915    0.0000 H   0  0  0  0  0  0  0  0  0  0  0  0
  1 11  1  0  0  0  0
  1 13  1  0  0  0  0
  2 12  1  0  0  0  0
  2 16  1  0  0  0  0
  3 15  1  0  0  0  0
  3 17  1  0  0  0  0
  4 17  1  0  0  0  0
  4 20  1  0  0  0  0
  5 18  1  0  0  0  0
  5 37  1  0  0  0  0
  6 19  1  0  0  0  0
  6 40  1  0  0  0  0
  7 21  1  0  0  0  0
  7 41  1  0  0  0  0
  8 22  1  0  0  0  0
  8 42  1  0  0  0  0
  9 10  1  0  0  0  0
  9 11  1  0  0  0  0
  9 12  1  0  0  0  0
  9 23  1  0  0  0  0
 10 13  1  0  0  0  0
 10 15  1  0  0  0  0
 10 24  1  0  0  0  0
 11 12  1  0  0  0  0
 11 25  1  0  0  0  0
 12 26  1  0  0  0  0
 13 14  1  0  0  0  0
 13 27  1  0  0  0  0
 14 15  1  0  0  0  0
 14 16  1  0  0  0  0
 14 28  1  0  0  0  0
 15 29  1  0  0  0  0
 16 30  1  0  0  0  0
 16 31  1  0  0  0  0
 17 18  1  0  0  0  0
 17 32  1  0  0  0  0
 18 19  1  0  0  0  0
 18 33  1  0  0  0  0
 19 21  1  0  0  0  0
 19 34  1  0  0  0  0
 20 21  1  0  0  0  0
 20 22  1  0  0  0  0
 20 35  1  0  0  0  0
 21 36  1  0  0  0  0
 22 38  1  0  0  0  0
 22 39  1  0  0  0  0
M  END
> <PUBCHEM_COMPOUND_CID>
123507524

> <PUBCHEM_COMPOUND_CANONICALIZED>
1

> <PUBCHEM_CACTVS_COMPLEXITY>
474

> <PUBCHEM_CACTVS_HBOND_ACCEPTOR>
8

> <PUBCHEM_CACTVS_HBOND_DONOR>
4

> <PUBCHEM_CACTVS_ROTATABLE_BOND>
3

> <PUBCHEM_CACTVS_SUBSKEYS>
AAADceBwPAAAAAAAAAAAAAAAGABgASAAAAAkAAAABIkAAAAAAAAAGgAACAAADRSwgAMACAAABgAAAAAAAAAAAAAAAAAAAAAAAAAREAIAAAAiQAAFAAAHAAHA4HwOgAAAAAAAAAAAAAAAAAAAAAAAAAAAAA==

> <PUBCHEM_IUPAC_OPENEYE_NAME>
2-(3,9-dioxatetracyclo[5.3.0.02,10.05,8]decan-6-yloxy)-6-(hydroxymethyl)tetrahydropyran-3,4,5-triol

> <PUBCHEM_IUPAC_CAS_NAME>
2-(3,9-dioxatetracyclo[5.3.0.02,10.05,8]decan-6-yloxy)-6-(hydroxymethyl)oxane-3,4,5-triol

> <PUBCHEM_IUPAC_NAME_MARKUP>
2-(3,9-dioxatetracyclo[5.3.0.0<SUP>2,10</SUP>.0<SUP>5,8</SUP>]decan-6-yloxy)-6-(hydroxymethyl)oxane-3,4,5-triol

> <PUBCHEM_IUPAC_NAME>
2-(3,9-dioxatetracyclo[5.3.0.02,10.05,8]decan-6-yloxy)-6-(hydroxymethyl)oxane-3,4,5-triol

> <PUBCHEM_IUPAC_SYSTEMATIC_NAME>
2-(3,9-dioxatetracyclo[5.3.0.02,10.05,8]decan-6-yloxy)-6-(hydroxymethyl)oxane-3,4,5-triol

> <PUBCHEM_IUPAC_TRADITIONAL_NAME>
2-(3,9-dioxatetracyclo[5.3.0.02,10.05,8]decan-6-yloxy)-6-methylol-tetrahydropyran-3,4,5-triol

> <PUBCHEM_IUPAC_INCHI>
InChI=1S/C14H20O8/c15-1-4-7(16)8(17)9(18)14(20-4)22-11-3-2-19-12-6-5(11)10(3)21-13(6)12/h3-18H,1-2H2

> <PUBCHEM_IUPAC_INCHIKEY>
WESZTDWTAPZVTL-UHFFFAOYSA-N

> <PUBCHEM_XLOGP3_AA>
-2.2

> <PUBCHEM_EXACT_MASS>
316.11581759

> <PUBCHEM_MOLECULAR_FORMULA>
C14H20O8

> <PUBCHEM_MOLECULAR_WEIGHT>
316.30

> <PUBCHEM_OPENEYE_CAN_SMILES>
C1C2C3C(C2OC4C(C(C(C(O4)CO)O)O)O)C5C(C5O3)O1

> <PUBCHEM_OPENEYE_ISO_SMILES>
C1C2C3C(C2OC4C(C(C(C(O4)CO)O)O)O)C5C(C5O3)O1

> <PUBCHEM_CACTVS_TPSA>
118

> <PUBCHEM_MONOISOTOPIC_WEIGHT>
316.11581759

> <PUBCHEM_TOTAL_CHARGE>
0

> <PUBCHEM_HEAVY_ATOM_COUNT>
22

> <PUBCHEM_ATOM_DEF_STEREO_COUNT>
0

> <PUBCHEM_ATOM_UDEF_STEREO_COUNT>
12

> <PUBCHEM_BOND_DEF_STEREO_COUNT>
0

> <PUBCHEM_BOND_UDEF_STEREO_COUNT>
0

> <PUBCHEM_ISOTOPIC_ATOM_COUNT>
0

> <PUBCHEM_COMPONENT_COUNT>
1

> <PUBCHEM_CACTVS_TAUTO_COUNT>
-1

> <PUBCHEM_COORDINATE_TYPE>
1
5
255

> <PUBCHEM_BONDANNOTATIONS>
11  1  3
13  1  3
10  15  3
14  16  3
12  2  3
20  22  3
15  3  3
17  3  3
18  5  3
19  6  3
21  7  3
9  10  3

$$$$
