 
  -OEChem-10192104142D

 42 44  0     1  0  0  0  0  0999 V2000
    5.0474    3.3034    0.0000 P   0  0  3  0  0  0  0  0  0  0  0  0
    4.4026   -0.1498    0.0000 O   0  0  0  0  0  0  0  0  0  0  0  0
    6.7523    0.9340    0.0000 O   0  0  0  0  0  0  0  0  0  0  0  0
    5.3548    2.3518    0.0000 O   0  0  0  0  0  0  0  0  0  0  0  0
    4.7400    4.2550    0.0000 O   0  0  0  0  0  0  0  0  0  0  0  0
    4.0958    2.9960    0.0000 O   0  0  0  0  0  0  0  0  0  0  0  0
    4.6783   -1.9103    0.0000 N   0  0  0  0  0  0  0  0  0  0  0  0
    4.6783   -3.5198    0.0000 N   0  0  0  0  0  0  0  0  0  0  0  0
    2.8660   -1.7150    0.0000 N   0  0  0  0  0  0  0  0  0  0  0  0
    2.0000   -3.2150    0.0000 N   0  0  0  0  0  0  0  0  0  0  0  0
    5.9422    0.3476    0.0000 C   0  0  2  0  0  0  0  0  0  0  0  0
    4.9917    0.6582    0.0000 C   0  0  1  0  0  0  0  0  0  0  0  0
    5.9405   -0.6524    0.0000 C   0  0  0  0  0  0  0  0  0  0  0  0
    4.9889   -0.9598    0.0000 C   0  0  1  0  0  0  0  0  0  0  0  0
    4.6844    1.6098    0.0000 C   0  0  0  0  0  0  0  0  0  0  0  0
    3.7320   -2.2150    0.0000 C   0  0  0  0  0  0  0  0  0  0  0  0
    5.2619   -2.7150    0.0000 C   0  0  0  0  0  0  0  0  0  0  0  0
    3.7320   -3.2150    0.0000 C   0  0  0  0  0  0  0  0  0  0  0  0
    7.6651    0.5257    0.0000 C   0  0  0  0  0  0  0  0  0  0  0  0
    2.8660   -3.7150    0.0000 C   0  0  0  0  0  0  0  0  0  0  0  0
    5.9990    3.6108    0.0000 C   0  0  0  0  0  0  0  0  0  0  0  0
    2.0000   -2.2150    0.0000 C   0  0  0  0  0  0  0  0  0  0  0  0
    2.8660   -4.7150    0.0000 C   0  0  0  0  0  0  0  0  0  0  0  0
    6.4942    0.0652    0.0000 H   0  0  0  0  0  0  0  0  0  0  0  0
    4.3795    0.7563    0.0000 H   0  0  0  0  0  0  0  0  0  0  0  0
    6.0684   -1.2591    0.0000 H   0  0  0  0  0  0  0  0  0  0  0  0
    6.5572   -0.5887    0.0000 H   0  0  0  0  0  0  0  0  0  0  0  0
    5.4266   -1.3990    0.0000 H   0  0  0  0  0  0  0  0  0  0  0  0
    4.3035    2.0991    0.0000 H   0  0  0  0  0  0  0  0  0  0  0  0
    4.1364    1.3197    0.0000 H   0  0  0  0  0  0  0  0  0  0  0  0
    5.8819   -2.7150    0.0000 H   0  0  0  0  0  0  0  0  0  0  0  0
    7.4120   -0.0403    0.0000 H   0  0  0  0  0  0  0  0  0  0  0  0
    8.2311    0.2725    0.0000 H   0  0  0  0  0  0  0  0  0  0  0  0
    7.9183    1.0916    0.0000 H   0  0  0  0  0  0  0  0  0  0  0  0
    6.1896    3.0208    0.0000 H   0  0  0  0  0  0  0  0  0  0  0  0
    6.5890    3.8014    0.0000 H   0  0  0  0  0  0  0  0  0  0  0  0
    5.8084    4.2008    0.0000 H   0  0  0  0  0  0  0  0  0  0  0  0
    1.4631   -1.9050    0.0000 H   0  0  0  0  0  0  0  0  0  0  0  0
    2.2460   -4.7150    0.0000 H   0  0  0  0  0  0  0  0  0  0  0  0
    2.8660   -5.3350    0.0000 H   0  0  0  0  0  0  0  0  0  0  0  0
    3.4860   -4.7150    0.0000 H   0  0  0  0  0  0  0  0  0  0  0  0
    5.1557    4.7150    0.0000 H   0  0  0  0  0  0  0  0  0  0  0  0
  1  4  1  0  0  0  0
  1  5  1  0  0  0  0
  1  6  2  0  0  0  0
  1 21  1  0  0  0  0
  2 12  1  0  0  0  0
  2 14  1  0  0  0  0
 11  3  1  1  0  0  0
  3 19  1  0  0  0  0
  4 15  1  0  0  0  0
  5 42  1  0  0  0  0
 14  7  1  6  0  0  0
  7 16  1  0  0  0  0
  7 17  1  0  0  0  0
  8 17  2  0  0  0  0
  8 18  1  0  0  0  0
  9 16  2  0  0  0  0
  9 22  1  0  0  0  0
 10 20  1  0  0  0  0
 10 22  2  0  0  0  0
 11 12  1  0  0  0  0
 11 13  1  0  0  0  0
 11 24  1  0  0  0  0
 12 15  1  6  0  0  0
 12 25  1  0  0  0  0
 13 14  1  0  0  0  0
 13 26  1  0  0  0  0
 13 27  1  0  0  0  0
 14 28  1  0  0  0  0
 15 29  1  0  0  0  0
 15 30  1  0  0  0  0
 16 18  1  0  0  0  0
 17 31  1  0  0  0  0
 18 20  2  0  0  0  0
 19 32  1  0  0  0  0
 19 33  1  0  0  0  0
 19 34  1  0  0  0  0
 20 23  1  0  0  0  0
 21 35  1  0  0  0  0
 21 36  1  0  0  0  0
 21 37  1  0  0  0  0
 22 38  1  0  0  0  0
 23 39  1  0  0  0  0
 23 40  1  0  0  0  0
 23 41  1  0  0  0  0
M  END
> <PUBCHEM_COMPOUND_CID>
118057020

> <PUBCHEM_COMPOUND_CANONICALIZED>
1

> <PUBCHEM_CACTVS_COMPLEXITY>
470

> <PUBCHEM_CACTVS_HBOND_ACCEPTOR>
8

> <PUBCHEM_CACTVS_HBOND_DONOR>
1

> <PUBCHEM_CACTVS_ROTATABLE_BOND>
5

> <PUBCHEM_CACTVS_SUBSKEYS>
AAADceBzuAIAAAAAAAAAAAAAAAAAAWJAAAAsAAAAAAAAAFgB+AAAHggACCAACBzhlwYH8L8MFRCgQQZhZICAgC0xEKABWCA4VBiBaAJAyMAeBAhPAALCQCCwMAIAAAAAAAAAAAAAAAAAAAAAAAAAAAAAAA==

> <PUBCHEM_IUPAC_OPENEYE_NAME>
[(2R,3S,5R)-3-methoxy-5-(6-methylpurin-9-yl)tetrahydrofuran-2-yl]methoxy-methyl-phosphinic acid

> <PUBCHEM_IUPAC_CAS_NAME>
[(2R,3S,5R)-3-methoxy-5-(6-methyl-9-purinyl)-2-oxolanyl]methoxy-methylphosphinic acid

> <PUBCHEM_IUPAC_NAME_MARKUP>
[(2<I>R</I>,3<I>S</I>,5<I>R</I>)-3-methoxy-5-(6-methylpurin-9-yl)oxolan-2-yl]methoxy-methylphosphinic acid

> <PUBCHEM_IUPAC_NAME>
[(2R,3S,5R)-3-methoxy-5-(6-methylpurin-9-yl)oxolan-2-yl]methoxy-methylphosphinic acid

> <PUBCHEM_IUPAC_SYSTEMATIC_NAME>
[(2R,3S,5R)-3-methoxy-5-(6-methylpurin-9-yl)oxolan-2-yl]methoxy-methyl-phosphinic acid

> <PUBCHEM_IUPAC_TRADITIONAL_NAME>
[(2R,3S,5R)-3-methoxy-5-(6-methylpurin-9-yl)tetrahydrofuran-2-yl]methoxy-methyl-phosphinic acid

> <PUBCHEM_IUPAC_INCHI>
InChI=1S/C13H19N4O5P/c1-8-12-13(15-6-14-8)17(7-16-12)11-4-9(20-2)10(22-11)5-21-23(3,18)19/h6-7,9-11H,4-5H2,1-3H3,(H,18,19)/t9-,10+,11+/m0/s1

> <PUBCHEM_IUPAC_INCHIKEY>
QRSWYLAJVSWYSL-HBNTYKKESA-N

> <PUBCHEM_XLOGP3_AA>
-0.8

> <PUBCHEM_EXACT_MASS>
342.10930672

> <PUBCHEM_MOLECULAR_FORMULA>
C13H19N4O5P

> <PUBCHEM_MOLECULAR_WEIGHT>
342.29

> <PUBCHEM_OPENEYE_CAN_SMILES>
CC1=C2C(=NC=N1)N(C=N2)C3CC(C(O3)COP(=O)(C)O)OC

> <PUBCHEM_OPENEYE_ISO_SMILES>
CC1=C2C(=NC=N1)N(C=N2)[C@H]3C[C@@H]([C@H](O3)COP(=O)(C)O)OC

> <PUBCHEM_CACTVS_TPSA>
109

> <PUBCHEM_MONOISOTOPIC_WEIGHT>
342.10930672

> <PUBCHEM_TOTAL_CHARGE>
0

> <PUBCHEM_HEAVY_ATOM_COUNT>
23

> <PUBCHEM_ATOM_DEF_STEREO_COUNT>
3

> <PUBCHEM_ATOM_UDEF_STEREO_COUNT>
0

> <PUBCHEM_BOND_DEF_STEREO_COUNT>
0

> <PUBCHEM_BOND_UDEF_STEREO_COUNT>
0

> <PUBCHEM_ISOTOPIC_ATOM_COUNT>
0

> <PUBCHEM_COMPONENT_COUNT>
1

> <PUBCHEM_CACTVS_TAUTO_COUNT>
-1

> <PUBCHEM_COORDINATE_TYPE>
1
5
255

> <PUBCHEM_BONDANNOTATIONS>
10  20  8
10  22  8
12  15  6
16  18  8
18  20  8
11  3  5
14  7  6
7  16  8
7  17  8
8  17  8
8  18  8
9  16  8
9  22  8

$$$$
