 
  -OEChem-10192104412D

 60 62  0     1  0  0  0  0  0999 V2000
    5.1350   -2.5950    0.0000 O   0  0  0  0  0  0  0  0  0  0  0  0
    3.4030   -4.5950    0.0000 O   0  0  0  0  0  0  0  0  0  0  0  0
    5.1350   -5.5950    0.0000 O   0  0  0  0  0  0  0  0  0  0  0  0
    6.8671   -2.5950    0.0000 O   0  0  0  0  0  0  0  0  0  0  0  0
    6.8671   -4.5950    0.0000 O   0  0  0  0  0  0  0  0  0  0  0  0
    2.5369   -3.0950    0.0000 O   0  0  0  0  0  0  0  0  0  0  0  0
    8.5991   -1.5950    0.0000 O   0  0  0  0  0  0  0  0  0  0  0  0
    6.0010    4.9050    0.0000 O   0  0  0  0  0  0  0  0  0  0  0  0
    9.4651    4.9050    0.0000 O   0  0  0  0  0  0  0  0  0  0  0  0
    4.2690   -4.0950    0.0000 C   0  0  1  0  0  0  0  0  0  0  0  0
    5.1350   -4.5950    0.0000 C   0  0  1  0  0  0  0  0  0  0  0  0
    4.2690   -3.0950    0.0000 C   0  0  1  0  0  0  0  0  0  0  0  0
    6.0010   -4.0950    0.0000 C   0  0  2  0  0  0  0  0  0  0  0  0
    6.0010   -3.0950    0.0000 C   0  0  1  0  0  0  0  0  0  0  0  0
    3.4030   -2.5950    0.0000 C   0  0  0  0  0  0  0  0  0  0  0  0
    6.8671   -1.5950    0.0000 C   0  0  0  0  0  0  0  0  0  0  0  0
    7.7331   -1.0950    0.0000 C   0  0  0  0  0  0  0  0  0  0  0  0
    6.0010   -1.0950    0.0000 C   0  0  0  0  0  0  0  0  0  0  0  0
    7.7331   -0.0950    0.0000 C   0  0  0  0  0  0  0  0  0  0  0  0
    6.0010   -0.0950    0.0000 C   0  0  0  0  0  0  0  0  0  0  0  0
    6.8671    0.4050    0.0000 C   0  0  0  0  0  0  0  0  0  0  0  0
    6.8671    1.4050    0.0000 C   0  0  0  0  0  0  0  0  0  0  0  0
    9.4651   -1.0950    0.0000 C   0  0  0  0  0  0  0  0  0  0  0  0
    7.7331    1.9050    0.0000 C   0  0  0  0  0  0  0  0  0  0  0  0
    7.7331    2.9050    0.0000 C   0  0  0  0  0  0  0  0  0  0  0  0
    8.5991    3.4050    0.0000 C   0  0  0  0  0  0  0  0  0  0  0  0
    6.8671    3.4050    0.0000 C   0  0  0  0  0  0  0  0  0  0  0  0
    6.8671    4.4050    0.0000 C   0  0  0  0  0  0  0  0  0  0  0  0
    8.5991    4.4050    0.0000 C   0  0  0  0  0  0  0  0  0  0  0  0
    7.7331    4.9050    0.0000 C   0  0  0  0  0  0  0  0  0  0  0  0
    6.0010    5.9050    0.0000 C   0  0  0  0  0  0  0  0  0  0  0  0
    9.4651    5.9050    0.0000 C   0  0  0  0  0  0  0  0  0  0  0  0
    3.7320   -3.7850    0.0000 H   0  0  0  0  0  0  0  0  0  0  0  0
    5.6720   -4.9050    0.0000 H   0  0  0  0  0  0  0  0  0  0  0  0
    4.2690   -2.4750    0.0000 H   0  0  0  0  0  0  0  0  0  0  0  0
    6.5380   -3.7850    0.0000 H   0  0  0  0  0  0  0  0  0  0  0  0
    6.0010   -2.4750    0.0000 H   0  0  0  0  0  0  0  0  0  0  0  0
    3.8015   -2.1200    0.0000 H   0  0  0  0  0  0  0  0  0  0  0  0
    3.0044   -2.1200    0.0000 H   0  0  0  0  0  0  0  0  0  0  0  0
    3.4030   -5.2150    0.0000 H   0  0  0  0  0  0  0  0  0  0  0  0
    4.5981   -5.9050    0.0000 H   0  0  0  0  0  0  0  0  0  0  0  0
    6.8671   -5.2150    0.0000 H   0  0  0  0  0  0  0  0  0  0  0  0
    2.0000   -2.7850    0.0000 H   0  0  0  0  0  0  0  0  0  0  0  0
    5.4641   -1.4050    0.0000 H   0  0  0  0  0  0  0  0  0  0  0  0
    8.2700    0.2150    0.0000 H   0  0  0  0  0  0  0  0  0  0  0  0
    5.4641    0.2150    0.0000 H   0  0  0  0  0  0  0  0  0  0  0  0
    6.3301    1.7150    0.0000 H   0  0  0  0  0  0  0  0  0  0  0  0
    8.2700    1.5950    0.0000 H   0  0  0  0  0  0  0  0  0  0  0  0
    9.7751   -1.6319    0.0000 H   0  0  0  0  0  0  0  0  0  0  0  0
   10.0021   -0.7850    0.0000 H   0  0  0  0  0  0  0  0  0  0  0  0
    9.1551   -0.5581    0.0000 H   0  0  0  0  0  0  0  0  0  0  0  0
    9.1360    3.0950    0.0000 H   0  0  0  0  0  0  0  0  0  0  0  0
    6.3301    3.0950    0.0000 H   0  0  0  0  0  0  0  0  0  0  0  0
    7.7331    5.5250    0.0000 H   0  0  0  0  0  0  0  0  0  0  0  0
    6.6210    5.9050    0.0000 H   0  0  0  0  0  0  0  0  0  0  0  0
    6.0010    6.5250    0.0000 H   0  0  0  0  0  0  0  0  0  0  0  0
    5.3810    5.9050    0.0000 H   0  0  0  0  0  0  0  0  0  0  0  0
   10.0851    5.9050    0.0000 H   0  0  0  0  0  0  0  0  0  0  0  0
    9.4651    6.5250    0.0000 H   0  0  0  0  0  0  0  0  0  0  0  0
    8.8451    5.9050    0.0000 H   0  0  0  0  0  0  0  0  0  0  0  0
  1 12  1  0  0  0  0
  1 14  1  0  0  0  0
 10  2  1  6  0  0  0
  2 40  1  0  0  0  0
 11  3  1  1  0  0  0
  3 41  1  0  0  0  0
 14  4  1  1  0  0  0
  4 16  1  0  0  0  0
 13  5  1  6  0  0  0
  5 42  1  0  0  0  0
  6 15  1  0  0  0  0
  6 43  1  0  0  0  0
  7 17  1  0  0  0  0
  7 23  1  0  0  0  0
  8 28  1  0  0  0  0
  8 31  1  0  0  0  0
  9 29  1  0  0  0  0
  9 32  1  0  0  0  0
 10 11  1  0  0  0  0
 10 12  1  0  0  0  0
 10 33  1  0  0  0  0
 11 13  1  0  0  0  0
 11 34  1  0  0  0  0
 12 15  1  1  0  0  0
 12 35  1  0  0  0  0
 13 14  1  0  0  0  0
 13 36  1  0  0  0  0
 14 37  1  0  0  0  0
 15 38  1  0  0  0  0
 15 39  1  0  0  0  0
 16 17  2  0  0  0  0
 16 18  1  0  0  0  0
 17 19  1  0  0  0  0
 18 20  2  0  0  0  0
 18 44  1  0  0  0  0
 19 21  2  0  0  0  0
 19 45  1  0  0  0  0
 20 21  1  0  0  0  0
 20 46  1  0  0  0  0
 21 22  1  0  0  0  0
 22 24  2  0  0  0  0
 22 47  1  0  0  0  0
 23 49  1  0  0  0  0
 23 50  1  0  0  0  0
 23 51  1  0  0  0  0
 24 25  1  0  0  0  0
 24 48  1  0  0  0  0
 25 26  2  0  0  0  0
 25 27  1  0  0  0  0
 26 29  1  0  0  0  0
 26 52  1  0  0  0  0
 27 28  2  0  0  0  0
 27 53  1  0  0  0  0
 28 30  1  0  0  0  0
 29 30  2  0  0  0  0
 30 54  1  0  0  0  0
 31 55  1  0  0  0  0
 31 56  1  0  0  0  0
 31 57  1  0  0  0  0
 32 58  1  0  0  0  0
 32 59  1  0  0  0  0
 32 60  1  0  0  0  0
M  END
> <PUBCHEM_COMPOUND_CID>
14077410

> <PUBCHEM_COMPOUND_CANONICALIZED>
1

> <PUBCHEM_CACTVS_COMPLEXITY>
576

> <PUBCHEM_CACTVS_HBOND_ACCEPTOR>
9

> <PUBCHEM_CACTVS_HBOND_DONOR>
4

> <PUBCHEM_CACTVS_ROTATABLE_BOND>
8

> <PUBCHEM_CACTVS_SUBSKEYS>
AAADceB4PAAAAAAAAAAAAAAAAAAAAAAAAAA0YIAAAAAAAAABQAAAGgAACAAADBSwmAMyDoAABgCAAiBCAAACCAAgIAAIiAAGiIgdNyKEMRqieCKlwBUPqAfA4BwOIAABCAAAQABAAAIQAACAAAAAAAAAAA==

> <PUBCHEM_IUPAC_OPENEYE_NAME>
(2S,3R,4S,5S,6R)-2-[4-[(E)-2-(3,5-dimethoxyphenyl)vinyl]-2-methoxy-phenoxy]-6-(hydroxymethyl)tetrahydropyran-3,4,5-triol

> <PUBCHEM_IUPAC_CAS_NAME>
(2S,3R,4S,5S,6R)-2-[4-[(E)-2-(3,5-dimethoxyphenyl)ethenyl]-2-methoxyphenoxy]-6-(hydroxymethyl)oxane-3,4,5-triol

> <PUBCHEM_IUPAC_NAME_MARKUP>
(2<I>S</I>,3<I>R</I>,4<I>S</I>,5<I>S</I>,6<I>R</I>)-2-[4-[(<I>E</I>)-2-(3,5-dimethoxyphenyl)ethenyl]-2-methoxyphenoxy]-6-(hydroxymethyl)oxane-3,4,5-triol

> <PUBCHEM_IUPAC_NAME>
(2S,3R,4S,5S,6R)-2-[4-[(E)-2-(3,5-dimethoxyphenyl)ethenyl]-2-methoxyphenoxy]-6-(hydroxymethyl)oxane-3,4,5-triol

> <PUBCHEM_IUPAC_SYSTEMATIC_NAME>
(2S,3R,4S,5S,6R)-2-[4-[(E)-2-(3,5-dimethoxyphenyl)ethenyl]-2-methoxy-phenoxy]-6-(hydroxymethyl)oxane-3,4,5-triol

> <PUBCHEM_IUPAC_TRADITIONAL_NAME>
(2S,3R,4S,5S,6R)-2-[4-[(E)-2-(3,5-dimethoxyphenyl)vinyl]-2-methoxy-phenoxy]-6-methylol-tetrahydropyran-3,4,5-triol

> <PUBCHEM_IUPAC_INCHI>
InChI=1S/C23H28O9/c1-28-15-8-14(9-16(11-15)29-2)5-4-13-6-7-17(18(10-13)30-3)31-23-22(27)21(26)20(25)19(12-24)32-23/h4-11,19-27H,12H2,1-3H3/b5-4+/t19-,20-,21+,22-,23-/m1/s1

> <PUBCHEM_IUPAC_INCHIKEY>
JRNIVZDUMMFRGU-DXPLZKCOSA-N

> <PUBCHEM_XLOGP3>
1.2

> <PUBCHEM_EXACT_MASS>
448.17333247

> <PUBCHEM_MOLECULAR_FORMULA>
C23H28O9

> <PUBCHEM_MOLECULAR_WEIGHT>
448.5

> <PUBCHEM_OPENEYE_CAN_SMILES>
COC1=CC(=CC(=C1)C=CC2=CC(=C(C=C2)OC3C(C(C(C(O3)CO)O)O)O)OC)OC

> <PUBCHEM_OPENEYE_ISO_SMILES>
COC1=CC(=CC(=C1)/C=C/C2=CC(=C(C=C2)O[C@H]3[C@@H]([C@H]([C@@H]([C@H](O3)CO)O)O)O)OC)OC

> <PUBCHEM_CACTVS_TPSA>
127

> <PUBCHEM_MONOISOTOPIC_WEIGHT>
448.17333247

> <PUBCHEM_TOTAL_CHARGE>
0

> <PUBCHEM_HEAVY_ATOM_COUNT>
32

> <PUBCHEM_ATOM_DEF_STEREO_COUNT>
5

> <PUBCHEM_ATOM_UDEF_STEREO_COUNT>
0

> <PUBCHEM_BOND_DEF_STEREO_COUNT>
1

> <PUBCHEM_BOND_UDEF_STEREO_COUNT>
0

> <PUBCHEM_ISOTOPIC_ATOM_COUNT>
0

> <PUBCHEM_COMPONENT_COUNT>
1

> <PUBCHEM_CACTVS_TAUTO_COUNT>
-1

> <PUBCHEM_COORDINATE_TYPE>
1
5
255

> <PUBCHEM_BONDANNOTATIONS>
12  15  5
16  17  8
16  18  8
17  19  8
18  20  8
19  21  8
10  2  6
20  21  8
25  26  8
25  27  8
26  29  8
27  28  8
28  30  8
29  30  8
11  3  5
14  4  5
13  5  6

$$$$
