 
  -OEChem-10192104002D

 40 42  0     0  0  0  0  0  0999 V2000
    3.6730    1.6201    0.0000 O   0  0  0  0  0  0  0  0  0  0  0  0
    6.2711    3.1201    0.0000 O   0  0  0  0  0  0  0  0  0  0  0  0
    4.5390    3.1201    0.0000 O   0  0  0  0  0  0  0  0  0  0  0  0
    3.6730   -1.3799    0.0000 C   0  0  0  0  0  0  0  0  0  0  0  0
    4.5092   -2.8282    0.0000 C   0  0  0  0  0  0  0  0  0  0  0  0
    2.9819   -3.2633    0.0000 C   0  0  0  0  0  0  0  0  0  0  0  0
    2.8368   -2.8282    0.0000 C   0  0  0  0  0  0  0  0  0  0  0  0
    4.5092   -1.8627    0.0000 C   0  0  0  0  0  0  0  0  0  0  0  0
    2.9819   -2.2180    0.0000 C   0  0  0  0  0  0  0  0  0  0  0  0
    2.8368   -1.8627    0.0000 C   0  0  0  0  0  0  0  0  0  0  0  0
    3.8876   -3.7401    0.0000 C   0  0  0  0  0  0  0  0  0  0  0  0
    3.6730   -3.1310    0.0000 C   0  0  0  0  0  0  0  0  0  0  0  0
    2.0000   -3.3110    0.0000 C   0  0  0  0  0  0  0  0  0  0  0  0
    3.6730   -0.3799    0.0000 C   0  0  0  0  0  0  0  0  0  0  0  0
    4.5390    0.1201    0.0000 C   0  0  0  0  0  0  0  0  0  0  0  0
    4.5390    1.1201    0.0000 C   0  0  0  0  0  0  0  0  0  0  0  0
    5.4050    1.6201    0.0000 C   0  0  0  0  0  0  0  0  0  0  0  0
    5.4050    2.6201    0.0000 C   0  0  0  0  0  0  0  0  0  0  0  0
    5.1016   -3.0109    0.0000 H   0  0  0  0  0  0  0  0  0  0  0  0
    2.8478   -3.8686    0.0000 H   0  0  0  0  0  0  0  0  0  0  0  0
    3.3444   -2.4722    0.0000 H   0  0  0  0  0  0  0  0  0  0  0  0
    5.1198   -1.9703    0.0000 H   0  0  0  0  0  0  0  0  0  0  0  0
    4.7212   -1.2801    0.0000 H   0  0  0  0  0  0  0  0  0  0  0  0
    2.6383   -1.7020    0.0000 H   0  0  0  0  0  0  0  0  0  0  0  0
    2.3885   -2.3975    0.0000 H   0  0  0  0  0  0  0  0  0  0  0  0
    2.6247   -1.2801    0.0000 H   0  0  0  0  0  0  0  0  0  0  0  0
    2.2262   -1.9703    0.0000 H   0  0  0  0  0  0  0  0  0  0  0  0
    3.5782   -4.2774    0.0000 H   0  0  0  0  0  0  0  0  0  0  0  0
    4.4127   -4.0697    0.0000 H   0  0  0  0  0  0  0  0  0  0  0  0
    3.3030   -3.6285    0.0000 H   0  0  0  0  0  0  0  0  0  0  0  0
    4.0430   -3.6285    0.0000 H   0  0  0  0  0  0  0  0  0  0  0  0
    1.5188   -2.9201    0.0000 H   0  0  0  0  0  0  0  0  0  0  0  0
    1.8068   -3.9001    0.0000 H   0  0  0  0  0  0  0  0  0  0  0  0
    3.4609    0.2027    0.0000 H   0  0  0  0  0  0  0  0  0  0  0  0
    3.0624   -0.4876    0.0000 H   0  0  0  0  0  0  0  0  0  0  0  0
    4.7511   -0.4625    0.0000 H   0  0  0  0  0  0  0  0  0  0  0  0
    5.1496    0.2278    0.0000 H   0  0  0  0  0  0  0  0  0  0  0  0
    5.6171    1.0375    0.0000 H   0  0  0  0  0  0  0  0  0  0  0  0
    6.0156    1.7278    0.0000 H   0  0  0  0  0  0  0  0  0  0  0  0
    6.2711    3.7401    0.0000 H   0  0  0  0  0  0  0  0  0  0  0  0
  1 16  2  0  0  0  0
  2 18  1  0  0  0  0
  2 40  1  0  0  0  0
  3 18  2  0  0  0  0
  4  8  1  0  0  0  0
  4  9  1  0  0  0  0
  4 10  1  0  0  0  0
  4 14  1  0  0  0  0
  5  8  1  0  0  0  0
  5 11  1  0  0  0  0
  5 12  1  0  0  0  0
  5 19  1  0  0  0  0
  6  9  1  0  0  0  0
  6 11  1  0  0  0  0
  6 13  1  0  0  0  0
  6 20  1  0  0  0  0
  7 10  1  0  0  0  0
  7 12  1  0  0  0  0
  7 13  1  0  0  0  0
  7 21  1  0  0  0  0
  8 22  1  0  0  0  0
  8 23  1  0  0  0  0
  9 24  1  0  0  0  0
  9 25  1  0  0  0  0
 10 26  1  0  0  0  0
 10 27  1  0  0  0  0
 11 28  1  0  0  0  0
 11 29  1  0  0  0  0
 12 30  1  0  0  0  0
 12 31  1  0  0  0  0
 13 32  1  0  0  0  0
 13 33  1  0  0  0  0
 14 15  1  0  0  0  0
 14 34  1  0  0  0  0
 14 35  1  0  0  0  0
 15 16  1  0  0  0  0
 15 36  1  0  0  0  0
 15 37  1  0  0  0  0
 16 17  1  0  0  0  0
 17 18  1  0  0  0  0
 17 38  1  0  0  0  0
 17 39  1  0  0  0  0
M  END
> <PUBCHEM_COMPOUND_CID>
18405615

> <PUBCHEM_COMPOUND_CANONICALIZED>
1

> <PUBCHEM_CACTVS_COMPLEXITY>
331

> <PUBCHEM_CACTVS_HBOND_ACCEPTOR>
3

> <PUBCHEM_CACTVS_HBOND_DONOR>
1

> <PUBCHEM_CACTVS_ROTATABLE_BOND>
5

> <PUBCHEM_CACTVS_SUBSKEYS>
AAADceBwMAAAAAAAAAAAAAAAAAAAAAAAAAAwYMGAAAAAAAAAAAAAGgAACAAADwSAgAAACAAAAgAIAICQCAAAAAAAAAAAAAEAAAAAABYIAAAAQAAEIAAAAAGIyOCPAAAAAAAAAAAAAAQAAAAAAAAAAAAAAA==

> <PUBCHEM_IUPAC_OPENEYE_NAME>
5-(1-adamantyl)-3-oxo-pentanoic acid

> <PUBCHEM_IUPAC_CAS_NAME>
5-(1-adamantyl)-3-oxopentanoic acid

> <PUBCHEM_IUPAC_NAME_MARKUP>
5-(1-adamantyl)-3-oxopentanoic acid

> <PUBCHEM_IUPAC_NAME>
5-(1-adamantyl)-3-oxopentanoic acid

> <PUBCHEM_IUPAC_SYSTEMATIC_NAME>
5-(1-adamantyl)-3-oxidanylidene-pentanoic acid

> <PUBCHEM_IUPAC_TRADITIONAL_NAME>
5-(1-adamantyl)-3-keto-valeric acid

> <PUBCHEM_IUPAC_INCHI>
InChI=1S/C15H22O3/c16-13(6-14(17)18)1-2-15-7-10-3-11(8-15)5-12(4-10)9-15/h10-12H,1-9H2,(H,17,18)

> <PUBCHEM_IUPAC_INCHIKEY>
AMFFRINULTWYFD-UHFFFAOYSA-N

> <PUBCHEM_XLOGP3_AA>
3.4

> <PUBCHEM_EXACT_MASS>
250.15689456

> <PUBCHEM_MOLECULAR_FORMULA>
C15H22O3

> <PUBCHEM_MOLECULAR_WEIGHT>
250.33

> <PUBCHEM_OPENEYE_CAN_SMILES>
C1C2CC3CC1CC(C2)(C3)CCC(=O)CC(=O)O

> <PUBCHEM_OPENEYE_ISO_SMILES>
C1C2CC3CC1CC(C2)(C3)CCC(=O)CC(=O)O

> <PUBCHEM_CACTVS_TPSA>
54.4

> <PUBCHEM_MONOISOTOPIC_WEIGHT>
250.15689456

> <PUBCHEM_TOTAL_CHARGE>
0

> <PUBCHEM_HEAVY_ATOM_COUNT>
18

> <PUBCHEM_ATOM_DEF_STEREO_COUNT>
0

> <PUBCHEM_ATOM_UDEF_STEREO_COUNT>
0

> <PUBCHEM_BOND_DEF_STEREO_COUNT>
0

> <PUBCHEM_BOND_UDEF_STEREO_COUNT>
0

> <PUBCHEM_ISOTOPIC_ATOM_COUNT>
0

> <PUBCHEM_COMPONENT_COUNT>
1

> <PUBCHEM_CACTVS_TAUTO_COUNT>
-1

> <PUBCHEM_COORDINATE_TYPE>
1
5
255

$$$$
