 
  -OEChem-10192103572D

 33 35  0     0  0  0  0  0  0999 V2000
    3.7688    3.8807    0.0000 O   0  5  0  0  0  0  0  0  0  0  0  0
    5.1701    2.8626    0.0000 O   0  0  0  0  0  0  0  0  0  0  0  0
    2.2218   -3.8807    0.0000 O   0  5  0  0  0  0  0  0  0  0  0  0
    3.9538   -3.8807    0.0000 O   0  0  0  0  0  0  0  0  0  0  0  0
    3.0878    0.6193    0.0000 N   0  0  0  0  0  0  0  0  0  0  0  0
    4.8479    0.8981    0.0000 N   0  0  0  0  0  0  0  0  0  0  0  0
    2.2788    1.2071    0.0000 N   0  0  0  0  0  0  0  0  0  0  0  0
    4.1756    2.9672    0.0000 N   0  3  0  0  0  0  0  0  0  0  0  0
    5.1569   -0.0530    0.0000 N   0  0  0  0  0  0  0  0  0  0  0  0
    3.0878   -3.3807    0.0000 N   0  3  0  0  0  0  0  0  0  0  0  0
    3.8968    1.2071    0.0000 C   0  0  0  0  0  0  0  0  0  0  0  0
    3.5878    2.1581    0.0000 C   0  0  0  0  0  0  0  0  0  0  0  0
    2.5878    2.1581    0.0000 C   0  0  0  0  0  0  0  0  0  0  0  0
    3.0878   -0.3807    0.0000 C   0  0  0  0  0  0  0  0  0  0  0  0
    2.2218   -0.8807    0.0000 C   0  0  0  0  0  0  0  0  0  0  0  0
    3.9538   -0.8807    0.0000 C   0  0  0  0  0  0  0  0  0  0  0  0
    2.0000    2.9672    0.0000 C   0  0  0  0  0  0  0  0  0  0  0  0
    5.6569    1.4858    0.0000 C   0  0  0  0  0  0  0  0  0  0  0  0
    2.2218   -1.8807    0.0000 C   0  0  0  0  0  0  0  0  0  0  0  0
    3.9538   -1.8807    0.0000 C   0  0  0  0  0  0  0  0  0  0  0  0
    3.0878   -2.3807    0.0000 C   0  0  0  0  0  0  0  0  0  0  0  0
    6.4659    0.8981    0.0000 C   0  0  0  0  0  0  0  0  0  0  0  0
    6.1569   -0.0530    0.0000 C   0  0  0  0  0  0  0  0  0  0  0  0
    1.6848   -0.5707    0.0000 H   0  0  0  0  0  0  0  0  0  0  0  0
    4.4908   -0.5707    0.0000 H   0  0  0  0  0  0  0  0  0  0  0  0
    2.5016    3.3316    0.0000 H   0  0  0  0  0  0  0  0  0  0  0  0
    1.6356    3.4688    0.0000 H   0  0  0  0  0  0  0  0  0  0  0  0
    1.4984    2.6027    0.0000 H   0  0  0  0  0  0  0  0  0  0  0  0
    5.6569    2.1059    0.0000 H   0  0  0  0  0  0  0  0  0  0  0  0
    1.6848   -2.1907    0.0000 H   0  0  0  0  0  0  0  0  0  0  0  0
    4.4908   -2.1907    0.0000 H   0  0  0  0  0  0  0  0  0  0  0  0
    7.0556    1.0897    0.0000 H   0  0  0  0  0  0  0  0  0  0  0  0
    6.5213   -0.5546    0.0000 H   0  0  0  0  0  0  0  0  0  0  0  0
  1  8  1  0  0  0  0
  2  8  2  0  0  0  0
  3 10  1  0  0  0  0
  4 10  2  0  0  0  0
  5  7  1  0  0  0  0
  5 11  1  0  0  0  0
  5 14  1  0  0  0  0
  6  9  1  0  0  0  0
  6 11  1  0  0  0  0
  6 18  1  0  0  0  0
  7 13  2  0  0  0  0
  8 12  1  0  0  0  0
  9 23  2  0  0  0  0
 10 21  1  0  0  0  0
 11 12  2  0  0  0  0
 12 13  1  0  0  0  0
 13 17  1  0  0  0  0
 14 15  2  0  0  0  0
 14 16  1  0  0  0  0
 15 19  1  0  0  0  0
 15 24  1  0  0  0  0
 16 20  2  0  0  0  0
 16 25  1  0  0  0  0
 17 26  1  0  0  0  0
 17 27  1  0  0  0  0
 17 28  1  0  0  0  0
 18 22  2  0  0  0  0
 18 29  1  0  0  0  0
 19 21  2  0  0  0  0
 19 30  1  0  0  0  0
 20 21  1  0  0  0  0
 20 31  1  0  0  0  0
 22 23  1  0  0  0  0
 22 32  1  0  0  0  0
 23 33  1  0  0  0  0
M  CHG  4   1  -1   3  -1   8   1  10   1
M  END
> <PUBCHEM_COMPOUND_CID>
13101620

> <PUBCHEM_COMPOUND_CANONICALIZED>
1

> <PUBCHEM_CACTVS_COMPLEXITY>
458

> <PUBCHEM_CACTVS_HBOND_ACCEPTOR>
6

> <PUBCHEM_CACTVS_HBOND_DONOR>
0

> <PUBCHEM_CACTVS_ROTATABLE_BOND>
2

> <PUBCHEM_CACTVS_SUBSKEYS>
AAADccBzuAAAAAAAAAAAAAAAAAAAAWLAAAAwAAAAAAAAAAAB8AAAHAAMAAAACAjBFgQ/8JIYQACjATZnZwCSBCMxkgA9mCA4dJqIYOLA2dGUpAhoiILIyCcQAAAAAACAAAAAAAAAAQAAAAAAAAAAAAAAAA==

> <PUBCHEM_IUPAC_OPENEYE_NAME>
3-methyl-4-nitro-1-(4-nitrophenyl)-5-pyrazol-1-yl-pyrazole

> <PUBCHEM_IUPAC_CAS_NAME>
3-methyl-4-nitro-1-(4-nitrophenyl)-5-(1-pyrazolyl)pyrazole

> <PUBCHEM_IUPAC_NAME_MARKUP>
3-methyl-4-nitro-1-(4-nitrophenyl)-5-pyrazol-1-ylpyrazole

> <PUBCHEM_IUPAC_NAME>
3-methyl-4-nitro-1-(4-nitrophenyl)-5-pyrazol-1-ylpyrazole

> <PUBCHEM_IUPAC_SYSTEMATIC_NAME>
3-methyl-4-nitro-1-(4-nitrophenyl)-5-pyrazol-1-yl-pyrazole

> <PUBCHEM_IUPAC_TRADITIONAL_NAME>
3-methyl-4-nitro-1-(4-nitrophenyl)-5-pyrazol-1-yl-pyrazole

> <PUBCHEM_IUPAC_INCHI>
InChI=1S/C13H10N6O4/c1-9-12(19(22)23)13(16-8-2-7-14-16)17(15-9)10-3-5-11(6-4-10)18(20)21/h2-8H,1H3

> <PUBCHEM_IUPAC_INCHIKEY>
ARKKZNPKRYRHRH-UHFFFAOYSA-N

> <PUBCHEM_XLOGP3_AA>
2.3

> <PUBCHEM_EXACT_MASS>
314.07635282

> <PUBCHEM_MOLECULAR_FORMULA>
C13H10N6O4

> <PUBCHEM_MOLECULAR_WEIGHT>
314.26

> <PUBCHEM_OPENEYE_CAN_SMILES>
CC1=NN(C(=C1[N+](=O)[O-])N2C=CC=N2)C3=CC=C(C=C3)[N+](=O)[O-]

> <PUBCHEM_OPENEYE_ISO_SMILES>
CC1=NN(C(=C1[N+](=O)[O-])N2C=CC=N2)C3=CC=C(C=C3)[N+](=O)[O-]

> <PUBCHEM_CACTVS_TPSA>
127

> <PUBCHEM_MONOISOTOPIC_WEIGHT>
314.07635282

> <PUBCHEM_TOTAL_CHARGE>
0

> <PUBCHEM_HEAVY_ATOM_COUNT>
23

> <PUBCHEM_ATOM_DEF_STEREO_COUNT>
0

> <PUBCHEM_ATOM_UDEF_STEREO_COUNT>
0

> <PUBCHEM_BOND_DEF_STEREO_COUNT>
0

> <PUBCHEM_BOND_UDEF_STEREO_COUNT>
0

> <PUBCHEM_ISOTOPIC_ATOM_COUNT>
0

> <PUBCHEM_COMPONENT_COUNT>
1

> <PUBCHEM_CACTVS_TAUTO_COUNT>
-1

> <PUBCHEM_COORDINATE_TYPE>
1
5
255

> <PUBCHEM_BONDANNOTATIONS>
11  12  8
12  13  8
14  15  8
14  16  8
15  19  8
16  20  8
18  22  8
19  21  8
20  21  8
22  23  8
5  11  8
5  7  8
6  18  8
6  9  8
7  13  8
9  23  8

$$$$
