 
  -OEChem-10192104382D

 65 68  0     1  0  0  0  0  0999 V2000
    7.8178    0.9553    0.0000 O   0  0  0  0  0  0  0  0  0  0  0  0
    9.7151   -0.6584    0.0000 O   0  0  0  0  0  0  0  0  0  0  0  0
    7.5088   -1.6138    0.0000 O   0  0  0  0  0  0  0  0  0  0  0  0
   10.0257    1.9015    0.0000 O   0  0  0  0  0  0  0  0  0  0  0  0
    5.8615   -1.0786    0.0000 O   0  0  0  0  0  0  0  0  0  0  0  0
   11.6721    1.3634    0.0000 O   0  0  0  0  0  0  0  0  0  0  0  0
    2.6691   -5.2986    0.0000 O   0  0  0  0  0  0  0  0  0  0  0  0
   14.8717    5.5780    0.0000 O   0  0  0  0  0  0  0  0  0  0  0  0
    4.0074   -6.7849    0.0000 O   0  0  0  0  0  0  0  0  0  0  0  0
   13.5361    7.0666    0.0000 O   0  0  0  0  0  0  0  0  0  0  0  0
    8.7688   -0.3537    0.0000 C   0  0  3  0  0  0  0  0  0  0  0  0
    8.7688    0.6463    0.0000 C   0  0  3  0  0  0  0  0  0  0  0  0
    7.8178   -0.6627    0.0000 C   0  0  3  0  0  0  0  0  0  0  0  0
    9.7151    0.9510    0.0000 C   0  0  3  0  0  0  0  0  0  0  0  0
    7.2300    0.1463    0.0000 C   0  0  0  0  0  0  0  0  0  0  0  0
   10.2987    0.1463    0.0000 C   0  0  0  0  0  0  0  0  0  0  0  0
    6.5306   -1.8217    0.0000 C   0  0  0  0  0  0  0  0  0  0  0  0
   11.0042    2.1077    0.0000 C   0  0  0  0  0  0  0  0  0  0  0  0
    6.2216   -2.7728    0.0000 C   0  0  0  0  0  0  0  0  0  0  0  0
   11.3149    3.0583    0.0000 C   0  0  0  0  0  0  0  0  0  0  0  0
    5.2435   -2.9807    0.0000 C   0  0  0  0  0  0  0  0  0  0  0  0
   12.2934    3.2645    0.0000 C   0  0  0  0  0  0  0  0  0  0  0  0
    4.9344   -3.9317    0.0000 C   0  0  0  0  0  0  0  0  0  0  0  0
   12.6041    4.2150    0.0000 C   0  0  0  0  0  0  0  0  0  0  0  0
    3.9563   -4.1396    0.0000 C   0  0  0  0  0  0  0  0  0  0  0  0
    5.6036   -4.6749    0.0000 C   0  0  0  0  0  0  0  0  0  0  0  0
   13.5826    4.4212    0.0000 C   0  0  0  0  0  0  0  0  0  0  0  0
   11.9362    4.9593    0.0000 C   0  0  0  0  0  0  0  0  0  0  0  0
    3.6473   -5.0907    0.0000 C   0  0  0  0  0  0  0  0  0  0  0  0
    5.2946   -5.6259    0.0000 C   0  0  0  0  0  0  0  0  0  0  0  0
   13.8932    5.3717    0.0000 C   0  0  0  0  0  0  0  0  0  0  0  0
   12.2469    5.9098    0.0000 C   0  0  0  0  0  0  0  0  0  0  0  0
    4.3164   -5.8338    0.0000 C   0  0  0  0  0  0  0  0  0  0  0  0
   13.2254    6.1161    0.0000 C   0  0  0  0  0  0  0  0  0  0  0  0
    2.0000   -4.5555    0.0000 C   0  0  0  0  0  0  0  0  0  0  0  0
   15.5396    4.8337    0.0000 C   0  0  0  0  0  0  0  0  0  0  0  0
    4.6765   -7.5280    0.0000 C   0  0  0  0  0  0  0  0  0  0  0  0
    8.7696   -0.9737    0.0000 H   0  0  0  0  0  0  0  0  0  0  0  0
    8.7696    1.2663    0.0000 H   0  0  0  0  0  0  0  0  0  0  0  0
    8.2562   -1.1011    0.0000 H   0  0  0  0  0  0  0  0  0  0  0  0
    9.2776    1.3904    0.0000 H   0  0  0  0  0  0  0  0  0  0  0  0
    6.7692    0.5611    0.0000 H   0  0  0  0  0  0  0  0  0  0  0  0
    6.7692   -0.2686    0.0000 H   0  0  0  0  0  0  0  0  0  0  0  0
   10.7595   -0.2684    0.0000 H   0  0  0  0  0  0  0  0  0  0  0  0
   10.7595    0.5610    0.0000 H   0  0  0  0  0  0  0  0  0  0  0  0
    6.6365   -3.2335    0.0000 H   0  0  0  0  0  0  0  0  0  0  0  0
   10.9008    3.5197    0.0000 H   0  0  0  0  0  0  0  0  0  0  0  0
    4.8286   -2.5199    0.0000 H   0  0  0  0  0  0  0  0  0  0  0  0
   12.7075    2.8030    0.0000 H   0  0  0  0  0  0  0  0  0  0  0  0
    3.5414   -3.6789    0.0000 H   0  0  0  0  0  0  0  0  0  0  0  0
    6.2100   -4.5460    0.0000 H   0  0  0  0  0  0  0  0  0  0  0  0
   13.9966    3.9598    0.0000 H   0  0  0  0  0  0  0  0  0  0  0  0
   11.3295    4.8315    0.0000 H   0  0  0  0  0  0  0  0  0  0  0  0
    5.7094   -6.0867    0.0000 H   0  0  0  0  0  0  0  0  0  0  0  0
   11.8328    6.3713    0.0000 H   0  0  0  0  0  0  0  0  0  0  0  0
   13.1220    7.5280    0.0000 H   0  0  0  0  0  0  0  0  0  0  0  0
    2.4608   -4.1406    0.0000 H   0  0  0  0  0  0  0  0  0  0  0  0
    1.5851   -4.0947    0.0000 H   0  0  0  0  0  0  0  0  0  0  0  0
    1.5392   -4.9703    0.0000 H   0  0  0  0  0  0  0  0  0  0  0  0
   15.0781    4.4196    0.0000 H   0  0  0  0  0  0  0  0  0  0  0  0
   15.9536    4.3722    0.0000 H   0  0  0  0  0  0  0  0  0  0  0  0
   16.0010    5.2477    0.0000 H   0  0  0  0  0  0  0  0  0  0  0  0
    4.2158   -7.9429    0.0000 H   0  0  0  0  0  0  0  0  0  0  0  0
    5.0914   -7.9888    0.0000 H   0  0  0  0  0  0  0  0  0  0  0  0
    5.1373   -7.1132    0.0000 H   0  0  0  0  0  0  0  0  0  0  0  0
  1 12  1  0  0  0  0
  1 15  1  0  0  0  0
  2 11  1  0  0  0  0
  2 16  1  0  0  0  0
  3 13  1  0  0  0  0
  3 17  1  0  0  0  0
  4 14  1  0  0  0  0
  4 18  1  0  0  0  0
  5 17  2  0  0  0  0
  6 18  2  0  0  0  0
  7 29  1  0  0  0  0
  7 35  1  0  0  0  0
  8 31  1  0  0  0  0
  8 36  1  0  0  0  0
  9 33  1  0  0  0  0
  9 37  1  0  0  0  0
 10 34  1  0  0  0  0
 10 56  1  0  0  0  0
 11 12  1  0  0  0  0
 11 13  1  0  0  0  0
 11 38  1  0  0  0  0
 12 14  1  0  0  0  0
 12 39  1  0  0  0  0
 13 15  1  0  0  0  0
 13 40  1  0  0  0  0
 14 16  1  0  0  0  0
 14 41  1  0  0  0  0
 15 42  1  0  0  0  0
 15 43  1  0  0  0  0
 16 44  1  0  0  0  0
 16 45  1  0  0  0  0
 17 19  1  0  0  0  0
 18 20  1  0  0  0  0
 19 21  2  0  0  0  0
 19 46  1  0  0  0  0
 20 22  2  0  0  0  0
 20 47  1  0  0  0  0
 21 23  1  0  0  0  0
 21 48  1  0  0  0  0
 22 24  1  0  0  0  0
 22 49  1  0  0  0  0
 23 25  2  0  0  0  0
 23 26  1  0  0  0  0
 24 27  2  0  0  0  0
 24 28  1  0  0  0  0
 25 29  1  0  0  0  0
 25 50  1  0  0  0  0
 26 30  2  0  0  0  0
 26 51  1  0  0  0  0
 27 31  1  0  0  0  0
 27 52  1  0  0  0  0
 28 32  2  0  0  0  0
 28 53  1  0  0  0  0
 29 33  2  0  0  0  0
 30 33  1  0  0  0  0
 30 54  1  0  0  0  0
 31 34  2  0  0  0  0
 32 34  1  0  0  0  0
 32 55  1  0  0  0  0
 35 57  1  0  0  0  0
 35 58  1  0  0  0  0
 35 59  1  0  0  0  0
 36 60  1  0  0  0  0
 36 61  1  0  0  0  0
 36 62  1  0  0  0  0
 37 63  1  0  0  0  0
 37 64  1  0  0  0  0
 37 65  1  0  0  0  0
M  END
> <PUBCHEM_COMPOUND_CID>
89512875

> <PUBCHEM_COMPOUND_CANONICALIZED>
1

> <PUBCHEM_CACTVS_COMPLEXITY>
828

> <PUBCHEM_CACTVS_HBOND_ACCEPTOR>
10

> <PUBCHEM_CACTVS_HBOND_DONOR>
1

> <PUBCHEM_CACTVS_ROTATABLE_BOND>
11

> <PUBCHEM_CACTVS_SUBSKEYS>
AAADceB4PAAAAAAAAAAAAAAAAAAAASJAAAAwYAAAAAASAAABQAAAGgAACAAADBSgmAIyDoAABgCIAiDSCAACCAAgIAAIiAAGiMgNJiKGMRqCcCMlwBELuYfA4BwOIAABAAAAQABAAAIAAACAAAAAAAAAAA==

> <PUBCHEM_IUPAC_OPENEYE_NAME>
[6-[(E)-3-(3,4-dimethoxyphenyl)prop-2-enoyl]oxy-2,3,3a,5,6,6a-hexahydrofuro[3,2-b]furan-3-yl] (E)-3-(4-hydroxy-3-methoxy-phenyl)prop-2-enoate

> <PUBCHEM_IUPAC_CAS_NAME>
(E)-3-(4-hydroxy-3-methoxyphenyl)-2-propenoic acid [6-[(E)-3-(3,4-dimethoxyphenyl)-1-oxoprop-2-enoxy]-2,3,3a,5,6,6a-hexahydrofuro[3,2-b]furan-3-yl] ester

> <PUBCHEM_IUPAC_NAME_MARKUP>
[6-[(<I>E</I>)-3-(3,4-dimethoxyphenyl)prop-2-enoyl]oxy-2,3,3<I>a</I>,5,6,6<I>a</I>-hexahydrofuro[3,2-b]furan-3-yl] (<I>E</I>)-3-(4-hydroxy-3-methoxyphenyl)prop-2-enoate

> <PUBCHEM_IUPAC_NAME>
[6-[(E)-3-(3,4-dimethoxyphenyl)prop-2-enoyl]oxy-2,3,3a,5,6,6a-hexahydrofuro[3,2-b]furan-3-yl] (E)-3-(4-hydroxy-3-methoxyphenyl)prop-2-enoate

> <PUBCHEM_IUPAC_SYSTEMATIC_NAME>
[6-[(E)-3-(3,4-dimethoxyphenyl)prop-2-enoyl]oxy-2,3,3a,5,6,6a-hexahydrofuro[3,2-b]furan-3-yl] (E)-3-(3-methoxy-4-oxidanyl-phenyl)prop-2-enoate

> <PUBCHEM_IUPAC_TRADITIONAL_NAME>
(E)-3-(4-hydroxy-3-methoxy-phenyl)acrylic acid [6-[(E)-3-(3,4-dimethoxyphenyl)acryloyl]oxy-2,3,3a,5,6,6a-hexahydrofuro[3,2-b]furan-3-yl] ester

> <PUBCHEM_IUPAC_INCHI>
InChI=1S/C27H28O10/c1-31-19-9-5-17(13-21(19)33-3)7-11-25(30)37-23-15-35-26-22(14-34-27(23)26)36-24(29)10-6-16-4-8-18(28)20(12-16)32-2/h4-13,22-23,26-28H,14-15H2,1-3H3/b10-6+,11-7+

> <PUBCHEM_IUPAC_INCHIKEY>
CHFHKUYSERRBAB-JMQWPVDRSA-N

> <PUBCHEM_XLOGP3_AA>
3.3

> <PUBCHEM_EXACT_MASS>
512.16824709

> <PUBCHEM_MOLECULAR_FORMULA>
C27H28O10

> <PUBCHEM_MOLECULAR_WEIGHT>
512.5

> <PUBCHEM_OPENEYE_CAN_SMILES>
COC1=C(C=C(C=C1)C=CC(=O)OC2COC3C2OCC3OC(=O)C=CC4=CC(=C(C=C4)O)OC)OC

> <PUBCHEM_OPENEYE_ISO_SMILES>
COC1=C(C=C(C=C1)/C=C/C(=O)OC2COC3C2OCC3OC(=O)/C=C/C4=CC(=C(C=C4)O)OC)OC

> <PUBCHEM_CACTVS_TPSA>
119

> <PUBCHEM_MONOISOTOPIC_WEIGHT>
512.16824709

> <PUBCHEM_TOTAL_CHARGE>
0

> <PUBCHEM_HEAVY_ATOM_COUNT>
37

> <PUBCHEM_ATOM_DEF_STEREO_COUNT>
0

> <PUBCHEM_ATOM_UDEF_STEREO_COUNT>
4

> <PUBCHEM_BOND_DEF_STEREO_COUNT>
2

> <PUBCHEM_BOND_UDEF_STEREO_COUNT>
0

> <PUBCHEM_ISOTOPIC_ATOM_COUNT>
0

> <PUBCHEM_COMPONENT_COUNT>
1

> <PUBCHEM_CACTVS_TAUTO_COUNT>
-1

> <PUBCHEM_COORDINATE_TYPE>
1
5
255

> <PUBCHEM_BONDANNOTATIONS>
12  1  3
11  2  3
23  25  8
23  26  8
24  27  8
24  28  8
25  29  8
26  30  8
27  31  8
28  32  8
29  33  8
13  3  3
30  33  8
31  34  8
32  34  8
14  4  3

$$$$
