 
  -OEChem-10192103412D

 49 49  0     1  0  0  0  0  0999 V2000
    7.5000   -0.0670    0.0000 P   0  3  0  0  0  0  0  0  0  0  0  0
   10.5981   -5.4330    0.0000 O   0  0  0  0  0  0  0  0  0  0  0  0
    9.2320   -3.0670    0.0000 O   0  0  0  0  0  0  0  0  0  0  0  0
    7.5000   -1.0670    0.0000 O   0  0  0  0  0  0  0  0  0  0  0  0
    7.5000    0.9330    0.0000 O   0  0  0  0  0  0  0  0  0  0  0  0
    6.5000   -0.0670    0.0000 O   0  0  0  0  0  0  0  0  0  0  0  0
    8.3660   -4.5670    0.0000 O   0  0  0  0  0  0  0  0  0  0  0  0
    8.5000   -0.0670    0.0000 O   0  0  0  0  0  0  0  0  0  0  0  0
    5.7680    2.9330    0.0000 O   0  0  0  0  0  0  0  0  0  0  0  0
    4.5000   -1.7990    0.0000 O   0  0  0  0  0  0  0  0  0  0  0  0
    6.6340    4.4330    0.0000 O   0  0  0  0  0  0  0  0  0  0  0  0
    3.0000   -0.9330    0.0000 O   0  0  0  0  0  0  0  0  0  0  0  0
   10.0981   -4.5670    0.0000 C   0  0  3  0  0  0  0  0  0  0  0  0
   11.0981   -4.5670    0.0000 C   0  0  0  0  0  0  0  0  0  0  0  0
    9.2320   -4.0670    0.0000 C   0  0  0  0  0  0  0  0  0  0  0  0
    8.3660   -2.5670    0.0000 C   0  0  0  0  0  0  0  0  0  0  0  0
    8.3660   -1.5670    0.0000 C   0  0  0  0  0  0  0  0  0  0  0  0
    6.6340    1.4330    0.0000 C   0  0  0  0  0  0  0  0  0  0  0  0
    6.0000   -0.9330    0.0000 C   0  0  0  0  0  0  0  0  0  0  0  0
    6.6340    2.4330    0.0000 C   0  0  0  0  0  0  0  0  0  0  0  0
    5.0000   -0.9330    0.0000 C   0  0  0  0  0  0  0  0  0  0  0  0
    5.7680    3.9330    0.0000 C   0  0  0  0  0  0  0  0  0  0  0  0
    3.5000   -1.7990    0.0000 C   0  0  0  0  0  0  0  0  0  0  0  0
    4.9019    4.4330    0.0000 C   0  0  0  0  0  0  0  0  0  0  0  0
    3.0000   -2.6651    0.0000 C   0  0  0  0  0  0  0  0  0  0  0  0
    4.9019    5.4330    0.0000 C   0  0  0  0  0  0  0  0  0  0  0  0
    2.0000   -2.6651    0.0000 C   0  0  0  0  0  0  0  0  0  0  0  0
    9.6597   -5.0054    0.0000 H   0  0  0  0  0  0  0  0  0  0  0  0
   11.6807   -4.7790    0.0000 H   0  0  0  0  0  0  0  0  0  0  0  0
   11.2057   -3.9564    0.0000 H   0  0  0  0  0  0  0  0  0  0  0  0
    7.7554   -2.4593    0.0000 H   0  0  0  0  0  0  0  0  0  0  0  0
    8.1540   -3.1496    0.0000 H   0  0  0  0  0  0  0  0  0  0  0  0
    8.9766   -1.6746    0.0000 H   0  0  0  0  0  0  0  0  0  0  0  0
    8.5781   -0.9844    0.0000 H   0  0  0  0  0  0  0  0  0  0  0  0
    6.0234    1.5407    0.0000 H   0  0  0  0  0  0  0  0  0  0  0  0
    6.4219    0.8504    0.0000 H   0  0  0  0  0  0  0  0  0  0  0  0
    5.8923   -1.5436    0.0000 H   0  0  0  0  0  0  0  0  0  0  0  0
    6.5826   -1.1451    0.0000 H   0  0  0  0  0  0  0  0  0  0  0  0
    7.2446    2.3253    0.0000 H   0  0  0  0  0  0  0  0  0  0  0  0
    6.8460    3.0156    0.0000 H   0  0  0  0  0  0  0  0  0  0  0  0
    5.1077   -0.3224    0.0000 H   0  0  0  0  0  0  0  0  0  0  0  0
    4.4174   -0.7210    0.0000 H   0  0  0  0  0  0  0  0  0  0  0  0
    8.8100    0.4699    0.0000 H   0  0  0  0  0  0  0  0  0  0  0  0
    4.3650    4.1230    0.0000 H   0  0  0  0  0  0  0  0  0  0  0  0
    3.3100   -3.2020    0.0000 H   0  0  0  0  0  0  0  0  0  0  0  0
    5.4389    5.7430    0.0000 H   0  0  0  0  0  0  0  0  0  0  0  0
    4.3650    5.7430    0.0000 H   0  0  0  0  0  0  0  0  0  0  0  0
    1.6900   -2.1281    0.0000 H   0  0  0  0  0  0  0  0  0  0  0  0
    1.6900   -3.2020    0.0000 H   0  0  0  0  0  0  0  0  0  0  0  0
  1  4  1  0  0  0  0
  1  5  1  0  0  0  0
  1  6  1  0  0  0  0
  1  8  1  0  0  0  0
  2 13  1  0  0  0  0
  2 14  1  0  0  0  0
  3 15  1  0  0  0  0
  3 16  1  0  0  0  0
  4 17  1  0  0  0  0
  5 18  1  0  0  0  0
  6 19  1  0  0  0  0
  7 15  2  0  0  0  0
  8 43  1  0  0  0  0
  9 20  1  0  0  0  0
  9 22  1  0  0  0  0
 10 21  1  0  0  0  0
 10 23  1  0  0  0  0
 11 22  2  0  0  0  0
 12 23  2  0  0  0  0
 13 14  1  0  0  0  0
 13 15  1  0  0  0  0
 13 28  1  0  0  0  0
 14 29  1  0  0  0  0
 14 30  1  0  0  0  0
 16 17  1  0  0  0  0
 16 31  1  0  0  0  0
 16 32  1  0  0  0  0
 17 33  1  0  0  0  0
 17 34  1  0  0  0  0
 18 20  1  0  0  0  0
 18 35  1  0  0  0  0
 18 36  1  0  0  0  0
 19 21  1  0  0  0  0
 19 37  1  0  0  0  0
 19 38  1  0  0  0  0
 20 39  1  0  0  0  0
 20 40  1  0  0  0  0
 21 41  1  0  0  0  0
 21 42  1  0  0  0  0
 22 24  1  0  0  0  0
 23 25  1  0  0  0  0
 24 26  2  0  0  0  0
 24 44  1  0  0  0  0
 25 27  2  0  0  0  0
 25 45  1  0  0  0  0
 26 46  1  0  0  0  0
 26 47  1  0  0  0  0
 27 48  1  0  0  0  0
 27 49  1  0  0  0  0
M  CHG  1   1   1
M  END
> <PUBCHEM_COMPOUND_CID>
18934125

> <PUBCHEM_COMPOUND_CANONICALIZED>
1

> <PUBCHEM_CACTVS_COMPLEXITY>
508

> <PUBCHEM_CACTVS_HBOND_ACCEPTOR>
11

> <PUBCHEM_CACTVS_HBOND_DONOR>
1

> <PUBCHEM_CACTVS_ROTATABLE_BOND>
18

> <PUBCHEM_CACTVS_SUBSKEYS>
AAADceBwPAIAAAAAAAAAAAAAEgAAAAAAAAAAAAAAAAAAAAAAAAAAGgAACCAACBSggAIACAAABRCIACDSCAIAAAAAAAAIAAFAAEABBAQAIAQCAAABIAACIIAAAAAAAAAAAAAAAAAAAAAAAAAAAAAAAAAAAA==

> <PUBCHEM_IUPAC_OPENEYE_NAME>
hydroxy-[2-(oxirane-2-carbonyloxy)ethoxy]-bis(2-prop-2-enoyloxyethoxy)phosphonium

> <PUBCHEM_IUPAC_CAS_NAME>
hydroxy-[2-[2-oxiranyl(oxo)methoxy]ethoxy]-bis[2-(1-oxoprop-2-enoxy)ethoxy]phosphonium

> <PUBCHEM_IUPAC_NAME_MARKUP>
hydroxy-[2-(oxirane-2-carbonyloxy)ethoxy]-bis(2-prop-2-enoyloxyethoxy)phosphanium

> <PUBCHEM_IUPAC_NAME>
hydroxy-[2-(oxirane-2-carbonyloxy)ethoxy]-bis(2-prop-2-enoyloxyethoxy)phosphanium

> <PUBCHEM_IUPAC_SYSTEMATIC_NAME>
oxidanyl-[2-(oxiran-2-ylcarbonyloxy)ethoxy]-bis(2-prop-2-enoyloxyethoxy)phosphanium

> <PUBCHEM_IUPAC_TRADITIONAL_NAME>
bis(2-acryloyloxyethoxy)-hydroxy-[2-(oxirane-2-carbonyloxy)ethoxy]phosphonium

> <PUBCHEM_IUPAC_INCHI>
InChI=1S/C15H22O11P/c1-3-13(16)20-5-8-24-27(19,25-9-6-21-14(17)4-2)26-10-7-22-15(18)12-11-23-12/h3-4,12,19H,1-2,5-11H2/q+1

> <PUBCHEM_IUPAC_INCHIKEY>
QPFVBZLHXWWXPX-UHFFFAOYSA-N

> <PUBCHEM_XLOGP3_AA>
0.1

> <PUBCHEM_EXACT_MASS>
409.08997351

> <PUBCHEM_MOLECULAR_FORMULA>
C15H22O11P+

> <PUBCHEM_MOLECULAR_WEIGHT>
409.30

> <PUBCHEM_OPENEYE_CAN_SMILES>
C=CC(=O)OCCO[P+](O)(OCCOC(=O)C=C)OCCOC(=O)C1CO1

> <PUBCHEM_OPENEYE_ISO_SMILES>
C=CC(=O)OCCO[P+](O)(OCCOC(=O)C=C)OCCOC(=O)C1CO1

> <PUBCHEM_CACTVS_TPSA>
139

> <PUBCHEM_MONOISOTOPIC_WEIGHT>
409.08997351

> <PUBCHEM_TOTAL_CHARGE>
1

> <PUBCHEM_HEAVY_ATOM_COUNT>
27

> <PUBCHEM_ATOM_DEF_STEREO_COUNT>
0

> <PUBCHEM_ATOM_UDEF_STEREO_COUNT>
1

> <PUBCHEM_BOND_DEF_STEREO_COUNT>
0

> <PUBCHEM_BOND_UDEF_STEREO_COUNT>
0

> <PUBCHEM_ISOTOPIC_ATOM_COUNT>
0

> <PUBCHEM_COMPONENT_COUNT>
1

> <PUBCHEM_CACTVS_TAUTO_COUNT>
-1

> <PUBCHEM_COORDINATE_TYPE>
1
5
255

> <PUBCHEM_BONDANNOTATIONS>
13  15  3

$$$$
