 
  -OEChem-10192104312D

 60 59  0     1  0  0  0  0  0999 V2000
    6.0010    0.0600    0.0000 O   0  0  0  0  0  0  0  0  0  0  0  0
    2.5369    1.0600    0.0000 O   0  0  0  0  0  0  0  0  0  0  0  0
    3.4030    2.5600    0.0000 O   0  0  0  0  0  0  0  0  0  0  0  0
    2.5369   -1.9400    0.0000 O   0  0  0  0  0  0  0  0  0  0  0  0
    4.2690   -1.9400    0.0000 O   0  0  0  0  0  0  0  0  0  0  0  0
    5.1350    1.5600    0.0000 N   0  0  0  0  0  0  0  0  0  0  0  0
   11.1972    1.0600    0.0000 C   0  0  0  0  0  0  0  0  0  0  0  0
   12.0632    1.5600    0.0000 C   0  0  0  0  0  0  0  0  0  0  0  0
   10.3312    1.5600    0.0000 C   0  0  0  0  0  0  0  0  0  0  0  0
   12.9292    1.0600    0.0000 C   0  0  0  0  0  0  0  0  0  0  0  0
    9.4651    1.0600    0.0000 C   0  0  0  0  0  0  0  0  0  0  0  0
   13.7953    1.5600    0.0000 C   0  0  0  0  0  0  0  0  0  0  0  0
    8.5991    1.5600    0.0000 C   0  0  0  0  0  0  0  0  0  0  0  0
   14.6613    1.0600    0.0000 C   0  0  0  0  0  0  0  0  0  0  0  0
    7.7331    1.0600    0.0000 C   0  0  0  0  0  0  0  0  0  0  0  0
   15.5273    1.5600    0.0000 C   0  0  0  0  0  0  0  0  0  0  0  0
    6.8671    1.5600    0.0000 C   0  0  0  0  0  0  0  0  0  0  0  0
   16.3933    1.0600    0.0000 C   0  0  0  0  0  0  0  0  0  0  0  0
    6.0010    1.0600    0.0000 C   0  0  0  0  0  0  0  0  0  0  0  0
    4.2690    1.0600    0.0000 C   0  0  3  0  0  0  0  0  0  0  0  0
    4.2690    0.0600    0.0000 C   0  0  0  0  0  0  0  0  0  0  0  0
   17.2594    1.5600    0.0000 C   0  0  0  0  0  0  0  0  0  0  0  0
    3.4030   -0.4400    0.0000 C   0  0  0  0  0  0  0  0  0  0  0  0
    3.4030    1.5600    0.0000 C   0  0  0  0  0  0  0  0  0  0  0  0
    3.4030   -1.4400    0.0000 C   0  0  0  0  0  0  0  0  0  0  0  0
   10.7987    0.5851    0.0000 H   0  0  0  0  0  0  0  0  0  0  0  0
   11.5957    0.5851    0.0000 H   0  0  0  0  0  0  0  0  0  0  0  0
   12.4617    2.0349    0.0000 H   0  0  0  0  0  0  0  0  0  0  0  0
   11.6647    2.0349    0.0000 H   0  0  0  0  0  0  0  0  0  0  0  0
   10.7297    2.0349    0.0000 H   0  0  0  0  0  0  0  0  0  0  0  0
    9.9326    2.0349    0.0000 H   0  0  0  0  0  0  0  0  0  0  0  0
   12.5307    0.5851    0.0000 H   0  0  0  0  0  0  0  0  0  0  0  0
   13.3278    0.5851    0.0000 H   0  0  0  0  0  0  0  0  0  0  0  0
    9.0666    0.5851    0.0000 H   0  0  0  0  0  0  0  0  0  0  0  0
    9.8637    0.5851    0.0000 H   0  0  0  0  0  0  0  0  0  0  0  0
   14.1938    2.0349    0.0000 H   0  0  0  0  0  0  0  0  0  0  0  0
   13.3967    2.0349    0.0000 H   0  0  0  0  0  0  0  0  0  0  0  0
    8.9976    2.0349    0.0000 H   0  0  0  0  0  0  0  0  0  0  0  0
    8.2006    2.0349    0.0000 H   0  0  0  0  0  0  0  0  0  0  0  0
   14.2628    0.5851    0.0000 H   0  0  0  0  0  0  0  0  0  0  0  0
   15.0598    0.5851    0.0000 H   0  0  0  0  0  0  0  0  0  0  0  0
    7.3346    0.5851    0.0000 H   0  0  0  0  0  0  0  0  0  0  0  0
    8.1316    0.5851    0.0000 H   0  0  0  0  0  0  0  0  0  0  0  0
   15.9258    2.0349    0.0000 H   0  0  0  0  0  0  0  0  0  0  0  0
   15.1288    2.0349    0.0000 H   0  0  0  0  0  0  0  0  0  0  0  0
    7.2656    2.0349    0.0000 H   0  0  0  0  0  0  0  0  0  0  0  0
    6.4685    2.0349    0.0000 H   0  0  0  0  0  0  0  0  0  0  0  0
   15.9948    0.5851    0.0000 H   0  0  0  0  0  0  0  0  0  0  0  0
   16.7919    0.5851    0.0000 H   0  0  0  0  0  0  0  0  0  0  0  0
    4.2690    1.6800    0.0000 H   0  0  0  0  0  0  0  0  0  0  0  0
    5.1350    2.1800    0.0000 H   0  0  0  0  0  0  0  0  0  0  0  0
    4.4810   -0.5226    0.0000 H   0  0  0  0  0  0  0  0  0  0  0  0
    4.8796    0.1677    0.0000 H   0  0  0  0  0  0  0  0  0  0  0  0
   17.5694    1.0231    0.0000 H   0  0  0  0  0  0  0  0  0  0  0  0
   17.7963    1.8700    0.0000 H   0  0  0  0  0  0  0  0  0  0  0  0
   16.9494    2.0969    0.0000 H   0  0  0  0  0  0  0  0  0  0  0  0
    3.1909    0.1426    0.0000 H   0  0  0  0  0  0  0  0  0  0  0  0
    2.7924   -0.5477    0.0000 H   0  0  0  0  0  0  0  0  0  0  0  0
    2.0000    1.3700    0.0000 H   0  0  0  0  0  0  0  0  0  0  0  0
    2.5369   -2.5600    0.0000 H   0  0  0  0  0  0  0  0  0  0  0  0
  1 19  2  0  0  0  0
  2 24  1  0  0  0  0
  2 59  1  0  0  0  0
  3 24  2  0  0  0  0
  4 25  1  0  0  0  0
  4 60  1  0  0  0  0
  5 25  2  0  0  0  0
  6 19  1  0  0  0  0
  6 20  1  0  0  0  0
  6 51  1  0  0  0  0
  7  8  1  0  0  0  0
  7  9  1  0  0  0  0
  7 26  1  0  0  0  0
  7 27  1  0  0  0  0
  8 10  1  0  0  0  0
  8 28  1  0  0  0  0
  8 29  1  0  0  0  0
  9 11  1  0  0  0  0
  9 30  1  0  0  0  0
  9 31  1  0  0  0  0
 10 12  1  0  0  0  0
 10 32  1  0  0  0  0
 10 33  1  0  0  0  0
 11 13  1  0  0  0  0
 11 34  1  0  0  0  0
 11 35  1  0  0  0  0
 12 14  1  0  0  0  0
 12 36  1  0  0  0  0
 12 37  1  0  0  0  0
 13 15  1  0  0  0  0
 13 38  1  0  0  0  0
 13 39  1  0  0  0  0
 14 16  1  0  0  0  0
 14 40  1  0  0  0  0
 14 41  1  0  0  0  0
 15 17  1  0  0  0  0
 15 42  1  0  0  0  0
 15 43  1  0  0  0  0
 16 18  1  0  0  0  0
 16 44  1  0  0  0  0
 16 45  1  0  0  0  0
 17 19  1  0  0  0  0
 17 46  1  0  0  0  0
 17 47  1  0  0  0  0
 18 22  1  0  0  0  0
 18 48  1  0  0  0  0
 18 49  1  0  0  0  0
 20 21  1  0  0  0  0
 20 24  1  0  0  0  0
 20 50  1  0  0  0  0
 21 23  1  0  0  0  0
 21 52  1  0  0  0  0
 21 53  1  0  0  0  0
 22 54  1  0  0  0  0
 22 55  1  0  0  0  0
 22 56  1  0  0  0  0
 23 25  1  0  0  0  0
 23 57  1  0  0  0  0
 23 58  1  0  0  0  0
M  END
> <PUBCHEM_COMPOUND_CID>
10110327

> <PUBCHEM_COMPOUND_CANONICALIZED>
1

> <PUBCHEM_CACTVS_COMPLEXITY>
384

> <PUBCHEM_CACTVS_HBOND_ACCEPTOR>
5

> <PUBCHEM_CACTVS_HBOND_DONOR>
3

> <PUBCHEM_CACTVS_ROTATABLE_BOND>
17

> <PUBCHEM_CACTVS_SUBSKEYS>
AAADcfB6OAAAAAAAAAAAAAAAAAAAAAAAAAAAAAAAAAAAAAAAAAAAHgAQCAAACCjBgAQCCALAAgAIAAGQGAAAAAAAAAAAAIGIAAACABIAgCAEQAAEFgCQAAG8roCAAAAAAAAAAAAAAAAAAAAAAAAAAAAAAA==

> <PUBCHEM_IUPAC_OPENEYE_NAME>
2-(tetradecanoylamino)pentanedioic acid

> <PUBCHEM_IUPAC_CAS_NAME>
2-(1-oxotetradecylamino)pentanedioic acid

> <PUBCHEM_IUPAC_NAME_MARKUP>
2-(tetradecanoylamino)pentanedioic acid

> <PUBCHEM_IUPAC_NAME>
2-(tetradecanoylamino)pentanedioic acid

> <PUBCHEM_IUPAC_SYSTEMATIC_NAME>
2-(tetradecanoylamino)pentanedioic acid

> <PUBCHEM_IUPAC_TRADITIONAL_NAME>
2-(tetradecanoylamino)glutaric acid

> <PUBCHEM_IUPAC_INCHI>
InChI=1S/C19H35NO5/c1-2-3-4-5-6-7-8-9-10-11-12-13-17(21)20-16(19(24)25)14-15-18(22)23/h16H,2-15H2,1H3,(H,20,21)(H,22,23)(H,24,25)

> <PUBCHEM_IUPAC_INCHIKEY>
MTJZWYHTZFVEGI-UHFFFAOYSA-N

> <PUBCHEM_XLOGP3_AA>
5.3

> <PUBCHEM_EXACT_MASS>
357.25152322

> <PUBCHEM_MOLECULAR_FORMULA>
C19H35NO5

> <PUBCHEM_MOLECULAR_WEIGHT>
357.5

> <PUBCHEM_OPENEYE_CAN_SMILES>
CCCCCCCCCCCCCC(=O)NC(CCC(=O)O)C(=O)O

> <PUBCHEM_OPENEYE_ISO_SMILES>
CCCCCCCCCCCCCC(=O)NC(CCC(=O)O)C(=O)O

> <PUBCHEM_CACTVS_TPSA>
104

> <PUBCHEM_MONOISOTOPIC_WEIGHT>
357.25152322

> <PUBCHEM_TOTAL_CHARGE>
0

> <PUBCHEM_HEAVY_ATOM_COUNT>
25

> <PUBCHEM_ATOM_DEF_STEREO_COUNT>
0

> <PUBCHEM_ATOM_UDEF_STEREO_COUNT>
1

> <PUBCHEM_BOND_DEF_STEREO_COUNT>
0

> <PUBCHEM_BOND_UDEF_STEREO_COUNT>
0

> <PUBCHEM_ISOTOPIC_ATOM_COUNT>
0

> <PUBCHEM_COMPONENT_COUNT>
1

> <PUBCHEM_CACTVS_TAUTO_COUNT>
-1

> <PUBCHEM_COORDINATE_TYPE>
1
5
255

> <PUBCHEM_BONDANNOTATIONS>
20  21  3

$$$$
