 
  -OEChem-10192103372D

 83 82  0     1  0  0  0  0  0999 V2000
    8.0622   -2.3100    0.0000 S   0  0  0  0  0  0  0  0  0  0  0  0
   10.6603    2.1900    0.0000 S   0  0  0  0  0  0  0  0  0  0  0  0
    2.8660   -2.3100    0.0000 S   0  0  0  0  0  0  0  0  0  0  0  0
   13.2583   -1.3100    0.0000 O   0  0  0  0  0  0  0  0  0  0  0  0
    9.7942    1.6900    0.0000 O   0  0  0  0  0  0  0  0  0  0  0  0
   12.3923   -0.8100    0.0000 O   0  0  0  0  0  0  0  0  0  0  0  0
    7.1962   -0.8100    0.0000 O   0  0  0  0  0  0  0  0  0  0  0  0
    5.4641    2.1900    0.0000 O   0  0  0  0  0  0  0  0  0  0  0  0
   14.9904    1.6900    0.0000 O   0  0  0  0  0  0  0  0  0  0  0  0
    4.5981    1.6900    0.0000 O   0  0  0  0  0  0  0  0  0  0  0  0
   18.4545    0.6900    0.0000 O   0  0  0  0  0  0  0  0  0  0  0  0
   17.5885   -0.8100    0.0000 O   0  0  0  0  0  0  0  0  0  0  0  0
    8.0622    0.6900    0.0000 N   0  0  0  0  0  0  0  0  0  0  0  0
   10.6603    0.1900    0.0000 N   0  0  0  0  0  0  0  0  0  0  0  0
   13.2583    0.6900    0.0000 N   0  0  0  0  0  0  0  0  0  0  0  0
    5.4641    0.1900    0.0000 N   0  0  0  0  0  0  0  0  0  0  0  0
   15.8564    0.1900    0.0000 N   0  0  0  0  0  0  0  0  0  0  0  0
    2.8660    0.6900    0.0000 N   0  0  0  0  0  0  0  0  0  0  0  0
    8.9282    0.1900    0.0000 C   0  0  1  0  0  0  0  0  0  0  0  0
   11.5263    0.6900    0.0000 C   0  0  2  0  0  0  0  0  0  0  0  0
   14.1244    0.1900    0.0000 C   0  0  1  0  0  0  0  0  0  0  0  0
    8.9282   -0.8100    0.0000 C   0  0  0  0  0  0  0  0  0  0  0  0
    9.7942    0.6900    0.0000 C   0  0  0  0  0  0  0  0  0  0  0  0
   14.1244   -0.8100    0.0000 C   0  0  1  0  0  0  0  0  0  0  0  0
    6.3301    0.6900    0.0000 C   0  0  2  0  0  0  0  0  0  0  0  0
   12.3923    0.1900    0.0000 C   0  0  0  0  0  0  0  0  0  0  0  0
    7.1962    0.1900    0.0000 C   0  0  0  0  0  0  0  0  0  0  0  0
    8.0622   -1.3100    0.0000 C   0  0  0  0  0  0  0  0  0  0  0  0
   11.5263    1.6900    0.0000 C   0  0  0  0  0  0  0  0  0  0  0  0
   14.9904    0.6900    0.0000 C   0  0  0  0  0  0  0  0  0  0  0  0
    3.7320    0.1900    0.0000 C   0  0  2  0  0  0  0  0  0  0  0  0
    6.3301    1.6900    0.0000 C   0  0  0  0  0  0  0  0  0  0  0  0
   14.9904   -1.3100    0.0000 C   0  0  0  0  0  0  0  0  0  0  0  0
    4.5981    0.6900    0.0000 C   0  0  0  0  0  0  0  0  0  0  0  0
    3.7320   -0.8100    0.0000 C   0  0  0  0  0  0  0  0  0  0  0  0
   16.7224    0.6900    0.0000 C   0  0  1  0  0  0  0  0  0  0  0  0
    2.8660   -1.3100    0.0000 C   0  0  0  0  0  0  0  0  0  0  0  0
   16.7224    1.6900    0.0000 C   0  0  0  0  0  0  0  0  0  0  0  0
   17.5885    0.1900    0.0000 C   0  0  0  0  0  0  0  0  0  0  0  0
    7.1962   -2.8100    0.0000 C   0  0  0  0  0  0  0  0  0  0  0  0
    2.0000   -2.8100    0.0000 C   0  0  0  0  0  0  0  0  0  0  0  0
    8.9282    0.8100    0.0000 H   0  0  0  0  0  0  0  0  0  0  0  0
   10.9893    1.0000    0.0000 H   0  0  0  0  0  0  0  0  0  0  0  0
   14.1244    0.8100    0.0000 H   0  0  0  0  0  0  0  0  0  0  0  0
    9.1403   -1.3926    0.0000 H   0  0  0  0  0  0  0  0  0  0  0  0
    9.5388   -0.7023    0.0000 H   0  0  0  0  0  0  0  0  0  0  0  0
    8.0622    1.3100    0.0000 H   0  0  0  0  0  0  0  0  0  0  0  0
   13.5874   -0.5000    0.0000 H   0  0  0  0  0  0  0  0  0  0  0  0
    5.7932    1.0000    0.0000 H   0  0  0  0  0  0  0  0  0  0  0  0
   10.6603   -0.4300    0.0000 H   0  0  0  0  0  0  0  0  0  0  0  0
   13.2583    1.3100    0.0000 H   0  0  0  0  0  0  0  0  0  0  0  0
    7.8501   -0.7274    0.0000 H   0  0  0  0  0  0  0  0  0  0  0  0
    7.4516   -1.4177    0.0000 H   0  0  0  0  0  0  0  0  0  0  0  0
   12.1369    1.5823    0.0000 H   0  0  0  0  0  0  0  0  0  0  0  0
   11.7383    2.2726    0.0000 H   0  0  0  0  0  0  0  0  0  0  0  0
    5.4641   -0.4300    0.0000 H   0  0  0  0  0  0  0  0  0  0  0  0
    3.7320    0.8100    0.0000 H   0  0  0  0  0  0  0  0  0  0  0  0
    6.9407    1.5823    0.0000 H   0  0  0  0  0  0  0  0  0  0  0  0
    6.5422    2.2726    0.0000 H   0  0  0  0  0  0  0  0  0  0  0  0
   14.6804   -1.8469    0.0000 H   0  0  0  0  0  0  0  0  0  0  0  0
   15.5273   -1.6200    0.0000 H   0  0  0  0  0  0  0  0  0  0  0  0
   15.3004   -0.7731    0.0000 H   0  0  0  0  0  0  0  0  0  0  0  0
    3.9441   -1.3926    0.0000 H   0  0  0  0  0  0  0  0  0  0  0  0
    4.3426   -0.7023    0.0000 H   0  0  0  0  0  0  0  0  0  0  0  0
   15.8564   -0.4300    0.0000 H   0  0  0  0  0  0  0  0  0  0  0  0
   16.1855    1.0000    0.0000 H   0  0  0  0  0  0  0  0  0  0  0  0
   13.2583   -1.9300    0.0000 H   0  0  0  0  0  0  0  0  0  0  0  0
    2.6540   -0.7274    0.0000 H   0  0  0  0  0  0  0  0  0  0  0  0
    2.2554   -1.4177    0.0000 H   0  0  0  0  0  0  0  0  0  0  0  0
    2.3291    0.3800    0.0000 H   0  0  0  0  0  0  0  0  0  0  0  0
    2.8660    1.3100    0.0000 H   0  0  0  0  0  0  0  0  0  0  0  0
   10.6603    2.8100    0.0000 H   0  0  0  0  0  0  0  0  0  0  0  0
   17.3424    1.6900    0.0000 H   0  0  0  0  0  0  0  0  0  0  0  0
   16.7224    2.3100    0.0000 H   0  0  0  0  0  0  0  0  0  0  0  0
   16.1024    1.6900    0.0000 H   0  0  0  0  0  0  0  0  0  0  0  0
    5.4641    2.8100    0.0000 H   0  0  0  0  0  0  0  0  0  0  0  0
    6.8862   -2.2731    0.0000 H   0  0  0  0  0  0  0  0  0  0  0  0
    6.6592   -3.1200    0.0000 H   0  0  0  0  0  0  0  0  0  0  0  0
    7.5062   -3.3469    0.0000 H   0  0  0  0  0  0  0  0  0  0  0  0
    1.6900   -2.2731    0.0000 H   0  0  0  0  0  0  0  0  0  0  0  0
    1.4631   -3.1200    0.0000 H   0  0  0  0  0  0  0  0  0  0  0  0
    2.3100   -3.3469    0.0000 H   0  0  0  0  0  0  0  0  0  0  0  0
   18.9914    0.3800    0.0000 H   0  0  0  0  0  0  0  0  0  0  0  0
  1 28  1  0  0  0  0
  1 40  1  0  0  0  0
  2 29  1  0  0  0  0
  2 72  1  0  0  0  0
  3 37  1  0  0  0  0
  3 41  1  0  0  0  0
 24  4  1  1  0  0  0
  4 67  1  0  0  0  0
  5 23  2  0  0  0  0
  6 26  2  0  0  0  0
  7 27  2  0  0  0  0
  8 32  1  0  0  0  0
  8 76  1  0  0  0  0
  9 30  2  0  0  0  0
 10 34  2  0  0  0  0
 11 39  1  0  0  0  0
 11 83  1  0  0  0  0
 12 39  2  0  0  0  0
 19 13  1  6  0  0  0
 13 27  1  0  0  0  0
 13 47  1  0  0  0  0
 20 14  1  1  0  0  0
 14 23  1  0  0  0  0
 14 50  1  0  0  0  0
 21 15  1  6  0  0  0
 15 26  1  0  0  0  0
 15 51  1  0  0  0  0
 25 16  1  1  0  0  0
 16 34  1  0  0  0  0
 16 56  1  0  0  0  0
 17 30  1  0  0  0  0
 36 17  1  1  0  0  0
 17 65  1  0  0  0  0
 31 18  1  6  0  0  0
 18 70  1  0  0  0  0
 18 71  1  0  0  0  0
 19 22  1  0  0  0  0
 19 23  1  0  0  0  0
 19 42  1  0  0  0  0
 20 26  1  0  0  0  0
 20 29  1  0  0  0  0
 20 43  1  0  0  0  0
 21 24  1  0  0  0  0
 21 30  1  0  0  0  0
 21 44  1  0  0  0  0
 22 28  1  0  0  0  0
 22 45  1  0  0  0  0
 22 46  1  0  0  0  0
 24 33  1  0  0  0  0
 24 48  1  0  0  0  0
 25 27  1  0  0  0  0
 25 32  1  0  0  0  0
 25 49  1  0  0  0  0
 28 52  1  0  0  0  0
 28 53  1  0  0  0  0
 29 54  1  0  0  0  0
 29 55  1  0  0  0  0
 31 34  1  0  0  0  0
 31 35  1  0  0  0  0
 31 57  1  0  0  0  0
 32 58  1  0  0  0  0
 32 59  1  0  0  0  0
 33 60  1  0  0  0  0
 33 61  1  0  0  0  0
 33 62  1  0  0  0  0
 35 37  1  0  0  0  0
 35 63  1  0  0  0  0
 35 64  1  0  0  0  0
 36 38  1  0  0  0  0
 36 39  1  0  0  0  0
 36 66  1  0  0  0  0
 37 68  1  0  0  0  0
 37 69  1  0  0  0  0
 38 73  1  0  0  0  0
 38 74  1  0  0  0  0
 38 75  1  0  0  0  0
 40 77  1  0  0  0  0
 40 78  1  0  0  0  0
 40 79  1  0  0  0  0
 41 80  1  0  0  0  0
 41 81  1  0  0  0  0
 41 82  1  0  0  0  0
M  END
> <PUBCHEM_COMPOUND_CID>
11621571

> <PUBCHEM_COMPOUND_CANONICALIZED>
1

> <PUBCHEM_CACTVS_COMPLEXITY>
901

> <PUBCHEM_CACTVS_HBOND_ACCEPTOR>
13

> <PUBCHEM_CACTVS_HBOND_DONOR>
10

> <PUBCHEM_CACTVS_ROTATABLE_BOND>
20

> <PUBCHEM_CACTVS_SUBSKEYS>
AAADcfB7vABgAAAAAAAAAAAAAAAAAAAAAAAAAAAAAAAAAAAAAAAAHgQQCAAACDzlwAaCCALAAgwIAAGQGAAAAAAAABAAAIGIAAACUBQggCAUQAACNgCQAAAAAAAAAAAAAAAAAAAAAAAAAAAAAAAAAAAAAA==

> <PUBCHEM_IUPAC_OPENEYE_NAME>
(2S)-2-[[(2S,3R)-2-[[(2R)-2-[[(2S)-2-[[(2S)-2-[[(2S)-2-amino-4-methylsulfanyl-butanoyl]amino]-3-hydroxy-propanoyl]amino]-4-methylsulfanyl-butanoyl]amino]-3-sulfanyl-propanoyl]amino]-3-hydroxy-butanoyl]amino]propanoic acid

> <PUBCHEM_IUPAC_CAS_NAME>
(2S)-2-[[(2S,3R)-2-[[(2R)-2-[[(2S)-2-[[(2S)-2-[[(2S)-2-amino-4-(methylthio)-1-oxobutyl]amino]-3-hydroxy-1-oxopropyl]amino]-4-(methylthio)-1-oxobutyl]amino]-3-mercapto-1-oxopropyl]amino]-3-hydroxy-1-oxobutyl]amino]propanoic acid

> <PUBCHEM_IUPAC_NAME_MARKUP>
(2<I>S</I>)-2-[[(2<I>S</I>,3<I>R</I>)-2-[[(2<I>R</I>)-2-[[(2<I>S</I>)-2-[[(2<I>S</I>)-2-[[(2<I>S</I>)-2-amino-4-methylsulfanylbutanoyl]amino]-3-hydroxypropanoyl]amino]-4-methylsulfanylbutanoyl]amino]-3-sulfanylpropanoyl]amino]-3-hydroxybutanoyl]amino]propanoic acid

> <PUBCHEM_IUPAC_NAME>
(2S)-2-[[(2S,3R)-2-[[(2R)-2-[[(2S)-2-[[(2S)-2-[[(2S)-2-amino-4-methylsulfanylbutanoyl]amino]-3-hydroxypropanoyl]amino]-4-methylsulfanylbutanoyl]amino]-3-sulfanylpropanoyl]amino]-3-hydroxybutanoyl]amino]propanoic acid

> <PUBCHEM_IUPAC_SYSTEMATIC_NAME>
(2S)-2-[[(2S,3R)-2-[[(2R)-2-[[(2S)-2-[[(2S)-2-[[(2S)-2-azanyl-4-methylsulfanyl-butanoyl]amino]-3-oxidanyl-propanoyl]amino]-4-methylsulfanyl-butanoyl]amino]-3-sulfanyl-propanoyl]amino]-3-oxidanyl-butanoyl]amino]propanoic acid

> <PUBCHEM_IUPAC_TRADITIONAL_NAME>
(2S)-2-[[(2S,3R)-2-[[(2R)-2-[[(2S)-2-[[(2S)-2-[[(2S)-2-amino-4-(methylthio)butanoyl]amino]-3-hydroxy-propanoyl]amino]-4-(methylthio)butanoyl]amino]-3-mercapto-propanoyl]amino]-3-hydroxy-butanoyl]amino]propionic acid

> <PUBCHEM_IUPAC_INCHI>
InChI=1S/C23H42N6O9S3/c1-11(23(37)38)25-22(36)17(12(2)31)29-21(35)16(10-39)28-19(33)14(6-8-41-4)26-20(34)15(9-30)27-18(32)13(24)5-7-40-3/h11-17,30-31,39H,5-10,24H2,1-4H3,(H,25,36)(H,26,34)(H,27,32)(H,28,33)(H,29,35)(H,37,38)/t11-,12+,13-,14-,15-,16-,17-/m0/s1

> <PUBCHEM_IUPAC_INCHIKEY>
UZWFKKACWFLHST-GUOSGSOXSA-N

> <PUBCHEM_XLOGP3_AA>
-4.7

> <PUBCHEM_EXACT_MASS>
642.21754046

> <PUBCHEM_MOLECULAR_FORMULA>
C23H42N6O9S3

> <PUBCHEM_MOLECULAR_WEIGHT>
642.8

> <PUBCHEM_OPENEYE_CAN_SMILES>
CC(C(C(=O)NC(C)C(=O)O)NC(=O)C(CS)NC(=O)C(CCSC)NC(=O)C(CO)NC(=O)C(CCSC)N)O

> <PUBCHEM_OPENEYE_ISO_SMILES>
C[C@H]([C@@H](C(=O)N[C@@H](C)C(=O)O)NC(=O)[C@H](CS)NC(=O)[C@H](CCSC)NC(=O)[C@H](CO)NC(=O)[C@H](CCSC)N)O

> <PUBCHEM_CACTVS_TPSA>
301

> <PUBCHEM_MONOISOTOPIC_WEIGHT>
642.21754046

> <PUBCHEM_TOTAL_CHARGE>
0

> <PUBCHEM_HEAVY_ATOM_COUNT>
41

> <PUBCHEM_ATOM_DEF_STEREO_COUNT>
7

> <PUBCHEM_ATOM_UDEF_STEREO_COUNT>
0

> <PUBCHEM_BOND_DEF_STEREO_COUNT>
0

> <PUBCHEM_BOND_UDEF_STEREO_COUNT>
0

> <PUBCHEM_ISOTOPIC_ATOM_COUNT>
0

> <PUBCHEM_COMPONENT_COUNT>
1

> <PUBCHEM_CACTVS_TAUTO_COUNT>
-1

> <PUBCHEM_COORDINATE_TYPE>
1
5
255

> <PUBCHEM_BONDANNOTATIONS>
19  13  6
20  14  5
21  15  6
25  16  5
36  17  5
31  18  6
24  4  5

$$$$
