 
  -OEChem-10192103492D

 71 71  0     1  0  0  0  0  0999 V2000
    5.4641   -1.8100    0.0000 O   0  0  0  0  0  0  0  0  0  0  0  0
    5.4641   -4.8100    0.0000 O   0  0  0  0  0  0  0  0  0  0  0  0
    7.1962   -1.8100    0.0000 O   0  0  0  0  0  0  0  0  0  0  0  0
    3.7320   -3.8100    0.0000 O   0  0  0  0  0  0  0  0  0  0  0  0
    3.7320   -0.8100    0.0000 O   0  0  0  0  0  0  0  0  0  0  0  0
    8.0622   -2.3100    0.0000 O   0  0  0  0  0  0  0  0  0  0  0  0
    3.7320   -4.8100    0.0000 O   0  0  0  0  0  0  0  0  0  0  0  0
    2.8660   -2.3100    0.0000 O   0  0  0  0  0  0  0  0  0  0  0  0
    2.0000   -0.8100    0.0000 O   0  0  0  0  0  0  0  0  0  0  0  0
    8.9282    4.1900    0.0000 O   0  0  0  0  0  0  0  0  0  0  0  0
   11.5263    5.6900    0.0000 O   0  0  0  0  0  0  0  0  0  0  0  0
    7.1962   -3.8100    0.0000 N   0  0  0  0  0  0  0  0  0  0  0  0
    9.7942    2.6900    0.0000 N   0  0  0  0  0  0  0  0  0  0  0  0
    5.4641   -3.8100    0.0000 C   0  0  1  0  0  0  0  0  0  0  0  0
    6.3301   -3.3100    0.0000 C   0  0  1  0  0  0  0  0  0  0  0  0
    4.5981   -3.3100    0.0000 C   0  0  1  0  0  0  0  0  0  0  0  0
    4.5981   -2.3100    0.0000 C   0  0  2  0  0  0  0  0  0  0  0  0
    6.3301   -2.3100    0.0000 C   0  0  2  0  0  0  0  0  0  0  0  0
    3.7320   -1.8100    0.0000 C   0  0  0  0  0  0  0  0  0  0  0  0
    7.1962   -0.8100    0.0000 C   0  0  0  0  0  0  0  0  0  0  0  0
    8.0622   -3.3100    0.0000 C   0  0  0  0  0  0  0  0  0  0  0  0
    8.0622   -0.3100    0.0000 C   0  0  0  0  0  0  0  0  0  0  0  0
    4.5981   -5.3100    0.0000 C   0  0  0  0  0  0  0  0  0  0  0  0
    2.8660   -3.3100    0.0000 C   0  0  0  0  0  0  0  0  0  0  0  0
    8.0622    0.6900    0.0000 C   0  0  0  0  0  0  0  0  0  0  0  0
    8.9282   -3.8100    0.0000 C   0  0  0  0  0  0  0  0  0  0  0  0
    8.9282    1.1900    0.0000 C   0  0  0  0  0  0  0  0  0  0  0  0
    4.5981   -6.3100    0.0000 C   0  0  0  0  0  0  0  0  0  0  0  0
    2.0000   -3.8100    0.0000 C   0  0  0  0  0  0  0  0  0  0  0  0
    2.8660   -0.3100    0.0000 C   0  0  0  0  0  0  0  0  0  0  0  0
    8.9282    2.1900    0.0000 C   0  0  0  0  0  0  0  0  0  0  0  0
    2.8660    0.6900    0.0000 C   0  0  0  0  0  0  0  0  0  0  0  0
    9.7942    3.6900    0.0000 C   0  0  0  0  0  0  0  0  0  0  0  0
   10.6603    4.1900    0.0000 C   0  0  0  0  0  0  0  0  0  0  0  0
   10.6603    5.1900    0.0000 C   0  0  0  0  0  0  0  0  0  0  0  0
    6.0010   -4.1200    0.0000 H   0  0  0  0  0  0  0  0  0  0  0  0
    6.8671   -3.0000    0.0000 H   0  0  0  0  0  0  0  0  0  0  0  0
    4.5981   -3.9300    0.0000 H   0  0  0  0  0  0  0  0  0  0  0  0
    4.5981   -1.6900    0.0000 H   0  0  0  0  0  0  0  0  0  0  0  0
    6.3301   -1.6900    0.0000 H   0  0  0  0  0  0  0  0  0  0  0  0
    3.1215   -1.7023    0.0000 H   0  0  0  0  0  0  0  0  0  0  0  0
    3.5200   -2.3926    0.0000 H   0  0  0  0  0  0  0  0  0  0  0  0
    7.1962   -4.4300    0.0000 H   0  0  0  0  0  0  0  0  0  0  0  0
    6.9841   -0.2274    0.0000 H   0  0  0  0  0  0  0  0  0  0  0  0
    6.5856   -0.9177    0.0000 H   0  0  0  0  0  0  0  0  0  0  0  0
    8.2742   -0.8926    0.0000 H   0  0  0  0  0  0  0  0  0  0  0  0
    8.6728   -0.2023    0.0000 H   0  0  0  0  0  0  0  0  0  0  0  0
    7.8501    1.2726    0.0000 H   0  0  0  0  0  0  0  0  0  0  0  0
    7.4516    0.5823    0.0000 H   0  0  0  0  0  0  0  0  0  0  0  0
    9.1403    0.6074    0.0000 H   0  0  0  0  0  0  0  0  0  0  0  0
    9.5388    1.2977    0.0000 H   0  0  0  0  0  0  0  0  0  0  0  0
    8.6182   -4.3469    0.0000 H   0  0  0  0  0  0  0  0  0  0  0  0
    9.4651   -4.1200    0.0000 H   0  0  0  0  0  0  0  0  0  0  0  0
    9.2382   -3.2731    0.0000 H   0  0  0  0  0  0  0  0  0  0  0  0
    3.9781   -6.3100    0.0000 H   0  0  0  0  0  0  0  0  0  0  0  0
    4.5981   -6.9300    0.0000 H   0  0  0  0  0  0  0  0  0  0  0  0
    5.2181   -6.3100    0.0000 H   0  0  0  0  0  0  0  0  0  0  0  0
    1.6900   -3.2731    0.0000 H   0  0  0  0  0  0  0  0  0  0  0  0
    1.4631   -4.1200    0.0000 H   0  0  0  0  0  0  0  0  0  0  0  0
    2.3100   -4.3469    0.0000 H   0  0  0  0  0  0  0  0  0  0  0  0
    8.7162    2.7726    0.0000 H   0  0  0  0  0  0  0  0  0  0  0  0
    8.3176    2.0823    0.0000 H   0  0  0  0  0  0  0  0  0  0  0  0
    3.4860    0.6900    0.0000 H   0  0  0  0  0  0  0  0  0  0  0  0
    2.8660    1.3100    0.0000 H   0  0  0  0  0  0  0  0  0  0  0  0
    2.2460    0.6900    0.0000 H   0  0  0  0  0  0  0  0  0  0  0  0
   10.3312    2.3800    0.0000 H   0  0  0  0  0  0  0  0  0  0  0  0
   10.8723    3.6074    0.0000 H   0  0  0  0  0  0  0  0  0  0  0  0
   11.2708    4.2977    0.0000 H   0  0  0  0  0  0  0  0  0  0  0  0
   10.4482    5.7726    0.0000 H   0  0  0  0  0  0  0  0  0  0  0  0
   10.0497    5.0823    0.0000 H   0  0  0  0  0  0  0  0  0  0  0  0
   11.5263    6.3100    0.0000 H   0  0  0  0  0  0  0  0  0  0  0  0
  1 17  1  0  0  0  0
  1 18  1  0  0  0  0
 14  2  1  6  0  0  0
  2 23  1  0  0  0  0
 18  3  1  6  0  0  0
  3 20  1  0  0  0  0
 16  4  1  6  0  0  0
  4 24  1  0  0  0  0
  5 19  1  0  0  0  0
  5 30  1  0  0  0  0
  6 21  2  0  0  0  0
  7 23  2  0  0  0  0
  8 24  2  0  0  0  0
  9 30  2  0  0  0  0
 10 33  2  0  0  0  0
 11 35  1  0  0  0  0
 11 71  1  0  0  0  0
 15 12  1  1  0  0  0
 12 21  1  0  0  0  0
 12 43  1  0  0  0  0
 13 31  1  0  0  0  0
 13 33  1  0  0  0  0
 13 66  1  0  0  0  0
 14 15  1  0  0  0  0
 14 16  1  0  0  0  0
 14 36  1  0  0  0  0
 15 18  1  0  0  0  0
 15 37  1  0  0  0  0
 16 17  1  0  0  0  0
 16 38  1  0  0  0  0
 17 19  1  6  0  0  0
 17 39  1  0  0  0  0
 18 40  1  0  0  0  0
 19 41  1  0  0  0  0
 19 42  1  0  0  0  0
 20 22  1  0  0  0  0
 20 44  1  0  0  0  0
 20 45  1  0  0  0  0
 21 26  1  0  0  0  0
 22 25  1  0  0  0  0
 22 46  1  0  0  0  0
 22 47  1  0  0  0  0
 23 28  1  0  0  0  0
 24 29  1  0  0  0  0
 25 27  1  0  0  0  0
 25 48  1  0  0  0  0
 25 49  1  0  0  0  0
 26 52  1  0  0  0  0
 26 53  1  0  0  0  0
 26 54  1  0  0  0  0
 27 31  1  0  0  0  0
 27 50  1  0  0  0  0
 27 51  1  0  0  0  0
 28 55  1  0  0  0  0
 28 56  1  0  0  0  0
 28 57  1  0  0  0  0
 29 58  1  0  0  0  0
 29 59  1  0  0  0  0
 29 60  1  0  0  0  0
 30 32  1  0  0  0  0
 31 61  1  0  0  0  0
 31 62  1  0  0  0  0
 32 63  1  0  0  0  0
 32 64  1  0  0  0  0
 32 65  1  0  0  0  0
 33 34  1  0  0  0  0
 34 35  1  0  0  0  0
 34 67  1  0  0  0  0
 34 68  1  0  0  0  0
 35 69  1  0  0  0  0
 35 70  1  0  0  0  0
M  END
> <PUBCHEM_COMPOUND_CID>
117854909

> <PUBCHEM_COMPOUND_CANONICALIZED>
1

> <PUBCHEM_CACTVS_COMPLEXITY>
730

> <PUBCHEM_CACTVS_HBOND_ACCEPTOR>
11

> <PUBCHEM_CACTVS_HBOND_DONOR>
3

> <PUBCHEM_CACTVS_ROTATABLE_BOND>
17

> <PUBCHEM_CACTVS_SUBSKEYS>
AAADcfB7PAAAAAAAAAAAAAAAAAAAAAAAAAAkAAAAAAAAAAAAAAAAHgAQCAAACDzxgAcCCALABgAIAAGQGAAAAAAAAAAAAIEIAAATEAYAgAAnQAAHNgCWAAHwcA8AAAAAAAAAAAAAAAAAAAAAAAAAAAAAAA==

> <PUBCHEM_IUPAC_OPENEYE_NAME>
[(2S,3S,4S,5S,6S)-5-acetamido-3,4-diacetoxy-6-[5-(3-hydroxypropanoylamino)pentoxy]tetrahydropyran-2-yl]methyl acetate

> <PUBCHEM_IUPAC_CAS_NAME>
acetic acid [(2S,3S,4S,5S,6S)-5-acetamido-3,4-diacetyloxy-6-[5-[(3-hydroxy-1-oxopropyl)amino]pentoxy]-2-oxanyl]methyl ester

> <PUBCHEM_IUPAC_NAME_MARKUP>
[(2<I>S</I>,3<I>S</I>,4<I>S</I>,5<I>S</I>,6<I>S</I>)-5-acetamido-3,4-diacetyloxy-6-[5-(3-hydroxypropanoylamino)pentoxy]oxan-2-yl]methyl acetate

> <PUBCHEM_IUPAC_NAME>
[(2S,3S,4S,5S,6S)-5-acetamido-3,4-diacetyloxy-6-[5-(3-hydroxypropanoylamino)pentoxy]oxan-2-yl]methyl acetate

> <PUBCHEM_IUPAC_SYSTEMATIC_NAME>
[(2S,3S,4S,5S,6S)-5-acetamido-3,4-diacetyloxy-6-[5-(3-oxidanylpropanoylamino)pentoxy]oxan-2-yl]methyl ethanoate

> <PUBCHEM_IUPAC_TRADITIONAL_NAME>
acetic acid [(2S,3S,4S,5S,6S)-5-acetamido-3,4-diacetoxy-6-[5-(3-hydroxypropanoylamino)pentoxy]tetrahydropyran-2-yl]methyl ester

> <PUBCHEM_IUPAC_INCHI>
InChI=1S/C22H36N2O11/c1-13(26)24-19-21(34-16(4)29)20(33-15(3)28)17(12-32-14(2)27)35-22(19)31-11-7-5-6-9-23-18(30)8-10-25/h17,19-22,25H,5-12H2,1-4H3,(H,23,30)(H,24,26)/t17-,19-,20+,21-,22-/m0/s1

> <PUBCHEM_IUPAC_INCHIKEY>
LTZDOUVLBYWAEX-OCVXTVMPSA-N

> <PUBCHEM_XLOGP3_AA>
-1.2

> <PUBCHEM_EXACT_MASS>
504.23190997

> <PUBCHEM_MOLECULAR_FORMULA>
C22H36N2O11

> <PUBCHEM_MOLECULAR_WEIGHT>
504.5

> <PUBCHEM_OPENEYE_CAN_SMILES>
CC(=O)NC1C(C(C(OC1OCCCCCNC(=O)CCO)COC(=O)C)OC(=O)C)OC(=O)C

> <PUBCHEM_OPENEYE_ISO_SMILES>
CC(=O)N[C@H]1[C@@H]([C@@H]([C@@H](O[C@@H]1OCCCCCNC(=O)CCO)COC(=O)C)OC(=O)C)OC(=O)C

> <PUBCHEM_CACTVS_TPSA>
176

> <PUBCHEM_MONOISOTOPIC_WEIGHT>
504.23190997

> <PUBCHEM_TOTAL_CHARGE>
0

> <PUBCHEM_HEAVY_ATOM_COUNT>
35

> <PUBCHEM_ATOM_DEF_STEREO_COUNT>
5

> <PUBCHEM_ATOM_UDEF_STEREO_COUNT>
0

> <PUBCHEM_BOND_DEF_STEREO_COUNT>
0

> <PUBCHEM_BOND_UDEF_STEREO_COUNT>
0

> <PUBCHEM_ISOTOPIC_ATOM_COUNT>
0

> <PUBCHEM_COMPONENT_COUNT>
1

> <PUBCHEM_CACTVS_TAUTO_COUNT>
-1

> <PUBCHEM_COORDINATE_TYPE>
1
5
255

> <PUBCHEM_BONDANNOTATIONS>
15  12  5
17  19  6
14  2  6
18  3  6
16  4  6

$$$$
