 
  -OEChem-10192103542D

 46 45  0     1  0  0  0  0  0999 V2000
    9.4651    1.5000    0.0000 O   0  0  0  0  0  0  0  0  0  0  0  0
    8.5991    3.0000    0.0000 O   0  0  0  0  0  0  0  0  0  0  0  0
    2.5369    1.5000    0.0000 O   0  0  0  0  0  0  0  0  0  0  0  0
    3.4030    3.0000    0.0000 O   0  0  0  0  0  0  0  0  0  0  0  0
    5.1350   -3.0000    0.0000 O   0  0  0  0  0  0  0  0  0  0  0  0
    7.7331    1.5000    0.0000 C   0  0  3  0  0  0  0  0  0  0  0  0
    6.8671    2.0000    0.0000 C   0  0  0  0  0  0  0  0  0  0  0  0
    7.7331    0.5000    0.0000 C   0  0  0  0  0  0  0  0  0  0  0  0
    6.0010    1.5000    0.0000 C   0  0  0  0  0  0  0  0  0  0  0  0
    5.1350    2.0000    0.0000 C   0  0  0  0  0  0  0  0  0  0  0  0
    6.8671    0.0000    0.0000 C   0  0  0  0  0  0  0  0  0  0  0  0
    4.2690    1.5000    0.0000 C   0  0  3  0  0  0  0  0  0  0  0  0
    6.8671   -1.0000    0.0000 C   0  0  0  0  0  0  0  0  0  0  0  0
    6.0010   -1.5000    0.0000 C   0  0  3  0  0  0  0  0  0  0  0  0
    4.2690    0.5000    0.0000 C   0  0  0  0  0  0  0  0  0  0  0  0
    8.5991    2.0000    0.0000 C   0  0  0  0  0  0  0  0  0  0  0  0
    3.4030    2.0000    0.0000 C   0  0  0  0  0  0  0  0  0  0  0  0
    5.1350   -1.0000    0.0000 C   0  0  0  0  0  0  0  0  0  0  0  0
    3.4030   -0.0000    0.0000 C   0  0  0  0  0  0  0  0  0  0  0  0
    6.0010   -2.5000    0.0000 C   0  0  0  0  0  0  0  0  0  0  0  0
    7.7331    2.1200    0.0000 H   0  0  0  0  0  0  0  0  0  0  0  0
    7.2656    2.4750    0.0000 H   0  0  0  0  0  0  0  0  0  0  0  0
    6.4685    2.4750    0.0000 H   0  0  0  0  0  0  0  0  0  0  0  0
    7.9451   -0.0826    0.0000 H   0  0  0  0  0  0  0  0  0  0  0  0
    8.3437    0.6077    0.0000 H   0  0  0  0  0  0  0  0  0  0  0  0
    5.6025    1.0250    0.0000 H   0  0  0  0  0  0  0  0  0  0  0  0
    6.3996    1.0250    0.0000 H   0  0  0  0  0  0  0  0  0  0  0  0
    5.5335    2.4750    0.0000 H   0  0  0  0  0  0  0  0  0  0  0  0
    4.7365    2.4750    0.0000 H   0  0  0  0  0  0  0  0  0  0  0  0
    6.6550    0.5826    0.0000 H   0  0  0  0  0  0  0  0  0  0  0  0
    6.2565   -0.1077    0.0000 H   0  0  0  0  0  0  0  0  0  0  0  0
    4.2690    2.1200    0.0000 H   0  0  0  0  0  0  0  0  0  0  0  0
    7.0791   -1.5826    0.0000 H   0  0  0  0  0  0  0  0  0  0  0  0
    7.4776   -0.8923    0.0000 H   0  0  0  0  0  0  0  0  0  0  0  0
    6.5380   -1.8100    0.0000 H   0  0  0  0  0  0  0  0  0  0  0  0
    4.4810   -0.0826    0.0000 H   0  0  0  0  0  0  0  0  0  0  0  0
    4.8796    0.6077    0.0000 H   0  0  0  0  0  0  0  0  0  0  0  0
    5.4450   -0.4631    0.0000 H   0  0  0  0  0  0  0  0  0  0  0  0
    4.5981   -0.6900    0.0000 H   0  0  0  0  0  0  0  0  0  0  0  0
    4.8250   -1.5369    0.0000 H   0  0  0  0  0  0  0  0  0  0  0  0
    3.0930    0.5369    0.0000 H   0  0  0  0  0  0  0  0  0  0  0  0
    2.8660   -0.3100    0.0000 H   0  0  0  0  0  0  0  0  0  0  0  0
    3.7130   -0.5369    0.0000 H   0  0  0  0  0  0  0  0  0  0  0  0
    6.5380   -2.8100    0.0000 H   0  0  0  0  0  0  0  0  0  0  0  0
   10.0021    1.8100    0.0000 H   0  0  0  0  0  0  0  0  0  0  0  0
    2.0000    1.8100    0.0000 H   0  0  0  0  0  0  0  0  0  0  0  0
  1 16  1  0  0  0  0
  1 45  1  0  0  0  0
  2 16  2  0  0  0  0
  3 17  1  0  0  0  0
  3 46  1  0  0  0  0
  4 17  2  0  0  0  0
  5 20  2  0  0  0  0
  6  7  1  0  0  0  0
  6  8  1  0  0  0  0
  6 16  1  0  0  0  0
  6 21  1  0  0  0  0
  7  9  1  0  0  0  0
  7 22  1  0  0  0  0
  7 23  1  0  0  0  0
  8 11  1  0  0  0  0
  8 24  1  0  0  0  0
  8 25  1  0  0  0  0
  9 10  1  0  0  0  0
  9 26  1  0  0  0  0
  9 27  1  0  0  0  0
 10 12  1  0  0  0  0
 10 28  1  0  0  0  0
 10 29  1  0  0  0  0
 11 13  1  0  0  0  0
 11 30  1  0  0  0  0
 11 31  1  0  0  0  0
 12 15  1  0  0  0  0
 12 17  1  0  0  0  0
 12 32  1  0  0  0  0
 13 14  1  0  0  0  0
 13 33  1  0  0  0  0
 13 34  1  0  0  0  0
 14 18  1  0  0  0  0
 14 20  1  0  0  0  0
 14 35  1  0  0  0  0
 15 19  1  0  0  0  0
 15 36  1  0  0  0  0
 15 37  1  0  0  0  0
 18 38  1  0  0  0  0
 18 39  1  0  0  0  0
 18 40  1  0  0  0  0
 19 41  1  0  0  0  0
 19 42  1  0  0  0  0
 19 43  1  0  0  0  0
 20 44  1  0  0  0  0
M  END
> <PUBCHEM_COMPOUND_CID>
89003678

> <PUBCHEM_COMPOUND_CANONICALIZED>
1

> <PUBCHEM_CACTVS_COMPLEXITY>
313

> <PUBCHEM_CACTVS_HBOND_ACCEPTOR>
5

> <PUBCHEM_CACTVS_HBOND_DONOR>
2

> <PUBCHEM_CACTVS_ROTATABLE_BOND>
12

> <PUBCHEM_CACTVS_SUBSKEYS>
AAADceBwOAAAAAAAAAAAAAAAAAAAAAAAAAAAAAAAAAAAAAAAAAAAGgAACAAADQCggAICCAAAAgAIAAiQiAAAAAAAAAAAAAEAAAAAABIAAAAAQAAEAAAAAAGIyOCOAAAAAAAAAAAAAAAAAAAAAAAAAAAAAA==

> <PUBCHEM_IUPAC_OPENEYE_NAME>
2-ethyl-6-(4-methyl-5-oxo-pentyl)heptanedioic acid

> <PUBCHEM_IUPAC_CAS_NAME>
2-ethyl-6-(4-methyl-5-oxopentyl)heptanedioic acid

> <PUBCHEM_IUPAC_NAME_MARKUP>
2-ethyl-6-(4-methyl-5-oxopentyl)heptanedioic acid

> <PUBCHEM_IUPAC_NAME>
2-ethyl-6-(4-methyl-5-oxopentyl)heptanedioic acid

> <PUBCHEM_IUPAC_SYSTEMATIC_NAME>
2-ethyl-6-(4-methyl-5-oxidanylidene-pentyl)heptanedioic acid

> <PUBCHEM_IUPAC_TRADITIONAL_NAME>
2-ethyl-6-(5-keto-4-methyl-pentyl)pimelic acid

> <PUBCHEM_IUPAC_INCHI>
InChI=1S/C15H26O5/c1-3-12(14(17)18)7-5-9-13(15(19)20)8-4-6-11(2)10-16/h10-13H,3-9H2,1-2H3,(H,17,18)(H,19,20)

> <PUBCHEM_IUPAC_INCHIKEY>
NSNUNYWUGYFSOT-UHFFFAOYSA-N

> <PUBCHEM_XLOGP3_AA>
2.7

> <PUBCHEM_EXACT_MASS>
286.17802393

> <PUBCHEM_MOLECULAR_FORMULA>
C15H26O5

> <PUBCHEM_MOLECULAR_WEIGHT>
286.36

> <PUBCHEM_OPENEYE_CAN_SMILES>
CCC(CCCC(CCCC(C)C=O)C(=O)O)C(=O)O

> <PUBCHEM_OPENEYE_ISO_SMILES>
CCC(CCCC(CCCC(C)C=O)C(=O)O)C(=O)O

> <PUBCHEM_CACTVS_TPSA>
91.7

> <PUBCHEM_MONOISOTOPIC_WEIGHT>
286.17802393

> <PUBCHEM_TOTAL_CHARGE>
0

> <PUBCHEM_HEAVY_ATOM_COUNT>
20

> <PUBCHEM_ATOM_DEF_STEREO_COUNT>
0

> <PUBCHEM_ATOM_UDEF_STEREO_COUNT>
3

> <PUBCHEM_BOND_DEF_STEREO_COUNT>
0

> <PUBCHEM_BOND_UDEF_STEREO_COUNT>
0

> <PUBCHEM_ISOTOPIC_ATOM_COUNT>
0

> <PUBCHEM_COMPONENT_COUNT>
1

> <PUBCHEM_CACTVS_TAUTO_COUNT>
-1

> <PUBCHEM_COORDINATE_TYPE>
1
5
255

> <PUBCHEM_BONDANNOTATIONS>
12  15  3
14  18  3
6  8  3

$$$$
