 
  -OEChem-10192103582D

 71 73  0     1  0  0  0  0  0999 V2000
    9.4046    0.6036    0.0000 S   0  0  0  0  0  0  0  0  0  0  0  0
   11.9393    2.3681    0.0000 P   0  0  0  0  0  0  0  0  0  0  0  0
    8.1485    2.8659    0.0000 O   0  0  0  0  0  0  0  0  0  0  0  0
    6.8666    1.1080    0.0000 O   0  0  0  0  0  0  0  0  0  0  0  0
   11.1292    1.7817    0.0000 O   0  0  0  0  0  0  0  0  0  0  0  0
   12.7493    2.9545    0.0000 O   0  0  0  0  0  0  0  0  0  0  0  0
   12.5256    1.5580    0.0000 O   0  0  0  0  0  0  0  0  0  0  0  0
   11.3529    3.1781    0.0000 O   0  0  0  0  0  0  0  0  0  0  0  0
    6.3301   -3.4590    0.0000 O   0  0  0  0  0  0  0  0  0  0  0  0
    8.1424   -0.6543    0.0000 N   0  0  0  0  0  0  0  0  0  0  0  0
    8.1424   -2.2637    0.0000 N   0  0  0  0  0  0  0  0  0  0  0  0
    6.3301   -0.4590    0.0000 N   0  0  0  0  0  0  0  0  0  0  0  0
    5.4641   -1.9590    0.0000 N   0  0  0  0  0  0  0  0  0  0  0  0
    4.5981   -0.4590    0.0000 N   0  0  0  0  0  0  0  0  0  0  0  0
    2.8660   -0.4590    0.0000 N   0  0  0  0  0  0  0  0  0  0  0  0
    8.4558    1.9143    0.0000 C   0  0  3  0  0  0  0  0  0  0  0  0
    7.8666    1.1063    0.0000 C   0  0  3  0  0  0  0  0  0  0  0  0
    9.4064    1.6036    0.0000 C   0  0  3  0  0  0  0  0  0  0  0  0
    8.4530    0.2963    0.0000 C   0  0  3  0  0  0  0  0  0  0  0  0
   10.2164    2.1900    0.0000 C   0  0  0  0  0  0  0  0  0  0  0  0
    7.1962   -0.9590    0.0000 C   0  0  0  0  0  0  0  0  0  0  0  0
    8.7260   -1.4590    0.0000 C   0  0  0  0  0  0  0  0  0  0  0  0
    7.1962   -1.9590    0.0000 C   0  0  0  0  0  0  0  0  0  0  0  0
   13.6621    2.5462    0.0000 C   0  0  0  0  0  0  0  0  0  0  0  0
   12.1173    0.6452    0.0000 C   0  0  0  0  0  0  0  0  0  0  0  0
    6.3301   -2.4590    0.0000 C   0  0  0  0  0  0  0  0  0  0  0  0
    5.4641   -0.9590    0.0000 C   0  0  0  0  0  0  0  0  0  0  0  0
   14.5750    2.1378    0.0000 C   0  0  0  0  0  0  0  0  0  0  0  0
   14.0705    3.4590    0.0000 C   0  0  0  0  0  0  0  0  0  0  0  0
   13.2538    1.6333    0.0000 C   0  0  0  0  0  0  0  0  0  0  0  0
   13.0302    0.2369    0.0000 C   0  0  0  0  0  0  0  0  0  0  0  0
   11.7090   -0.2676    0.0000 C   0  0  0  0  0  0  0  0  0  0  0  0
   11.2045    1.0535    0.0000 C   0  0  0  0  0  0  0  0  0  0  0  0
    3.7320   -0.9590    0.0000 C   0  0  0  0  0  0  0  0  0  0  0  0
    2.0000   -0.9590    0.0000 C   0  0  0  0  0  0  0  0  0  0  0  0
    2.8660    0.5410    0.0000 C   0  0  0  0  0  0  0  0  0  0  0  0
    7.8436    2.0123    0.0000 H   0  0  0  0  0  0  0  0  0  0  0  0
    7.5861    1.6592    0.0000 H   0  0  0  0  0  0  0  0  0  0  0  0
    9.9583    1.3212    0.0000 H   0  0  0  0  0  0  0  0  0  0  0  0
    7.8405    0.2003    0.0000 H   0  0  0  0  0  0  0  0  0  0  0  0
   10.5640    2.7034    0.0000 H   0  0  0  0  0  0  0  0  0  0  0  0
    9.7711    2.6215    0.0000 H   0  0  0  0  0  0  0  0  0  0  0  0
    8.5641    3.3259    0.0000 H   0  0  0  0  0  0  0  0  0  0  0  0
    6.5576    1.6455    0.0000 H   0  0  0  0  0  0  0  0  0  0  0  0
    9.3460   -1.4590    0.0000 H   0  0  0  0  0  0  0  0  0  0  0  0
   14.3218    1.5719    0.0000 H   0  0  0  0  0  0  0  0  0  0  0  0
   15.1409    1.8847    0.0000 H   0  0  0  0  0  0  0  0  0  0  0  0
   14.8281    2.7038    0.0000 H   0  0  0  0  0  0  0  0  0  0  0  0
   14.6364    3.2058    0.0000 H   0  0  0  0  0  0  0  0  0  0  0  0
   14.3236    4.0249    0.0000 H   0  0  0  0  0  0  0  0  0  0  0  0
   13.5045    3.7122    0.0000 H   0  0  0  0  0  0  0  0  0  0  0  0
   12.6879    1.8865    0.0000 H   0  0  0  0  0  0  0  0  0  0  0  0
   13.0007    1.0674    0.0000 H   0  0  0  0  0  0  0  0  0  0  0  0
   13.8198    1.3802    0.0000 H   0  0  0  0  0  0  0  0  0  0  0  0
   12.7770   -0.3291    0.0000 H   0  0  0  0  0  0  0  0  0  0  0  0
   13.5961   -0.0163    0.0000 H   0  0  0  0  0  0  0  0  0  0  0  0
   13.2833    0.8029    0.0000 H   0  0  0  0  0  0  0  0  0  0  0  0
   11.1431   -0.0145    0.0000 H   0  0  0  0  0  0  0  0  0  0  0  0
   11.4559   -0.8336    0.0000 H   0  0  0  0  0  0  0  0  0  0  0  0
   12.2750   -0.5208    0.0000 H   0  0  0  0  0  0  0  0  0  0  0  0
   11.4576    1.6195    0.0000 H   0  0  0  0  0  0  0  0  0  0  0  0
   10.6385    1.3067    0.0000 H   0  0  0  0  0  0  0  0  0  0  0  0
   10.9513    0.4876    0.0000 H   0  0  0  0  0  0  0  0  0  0  0  0
    4.9272   -2.2690    0.0000 H   0  0  0  0  0  0  0  0  0  0  0  0
    3.7320   -1.5790    0.0000 H   0  0  0  0  0  0  0  0  0  0  0  0
    1.6900   -0.4221    0.0000 H   0  0  0  0  0  0  0  0  0  0  0  0
    1.4631   -1.2690    0.0000 H   0  0  0  0  0  0  0  0  0  0  0  0
    2.3100   -1.4959    0.0000 H   0  0  0  0  0  0  0  0  0  0  0  0
    3.4860    0.5410    0.0000 H   0  0  0  0  0  0  0  0  0  0  0  0
    2.8660    1.1610    0.0000 H   0  0  0  0  0  0  0  0  0  0  0  0
    2.2460    0.5410    0.0000 H   0  0  0  0  0  0  0  0  0  0  0  0
  1 18  1  0  0  0  0
  1 19  1  0  0  0  0
  2  5  1  0  0  0  0
  2  6  1  0  0  0  0
  2  7  1  0  0  0  0
  2  8  2  0  0  0  0
  3 16  1  0  0  0  0
  3 43  1  0  0  0  0
  4 17  1  0  0  0  0
  4 44  1  0  0  0  0
  5 20  1  0  0  0  0
  6 24  1  0  0  0  0
  7 25  1  0  0  0  0
  9 26  2  0  0  0  0
 10 19  1  0  0  0  0
 10 21  1  0  0  0  0
 10 22  1  0  0  0  0
 11 22  2  0  0  0  0
 11 23  1  0  0  0  0
 12 21  1  0  0  0  0
 12 27  2  0  0  0  0
 13 26  1  0  0  0  0
 13 27  1  0  0  0  0
 13 64  1  0  0  0  0
 14 27  1  0  0  0  0
 14 34  2  3  0  0  0
 15 34  1  0  0  0  0
 15 35  1  0  0  0  0
 15 36  1  0  0  0  0
 16 17  1  0  0  0  0
 16 18  1  0  0  0  0
 16 37  1  0  0  0  0
 17 19  1  0  0  0  0
 17 38  1  0  0  0  0
 18 20  1  0  0  0  0
 18 39  1  0  0  0  0
 19 40  1  0  0  0  0
 20 41  1  0  0  0  0
 20 42  1  0  0  0  0
 21 23  2  0  0  0  0
 22 45  1  0  0  0  0
 23 26  1  0  0  0  0
 24 28  1  0  0  0  0
 24 29  1  0  0  0  0
 24 30  1  0  0  0  0
 25 31  1  0  0  0  0
 25 32  1  0  0  0  0
 25 33  1  0  0  0  0
 28 46  1  0  0  0  0
 28 47  1  0  0  0  0
 28 48  1  0  0  0  0
 29 49  1  0  0  0  0
 29 50  1  0  0  0  0
 29 51  1  0  0  0  0
 30 52  1  0  0  0  0
 30 53  1  0  0  0  0
 30 54  1  0  0  0  0
 31 55  1  0  0  0  0
 31 56  1  0  0  0  0
 31 57  1  0  0  0  0
 32 58  1  0  0  0  0
 32 59  1  0  0  0  0
 32 60  1  0  0  0  0
 33 61  1  0  0  0  0
 33 62  1  0  0  0  0
 33 63  1  0  0  0  0
 34 65  1  0  0  0  0
 35 66  1  0  0  0  0
 35 67  1  0  0  0  0
 35 68  1  0  0  0  0
 36 69  1  0  0  0  0
 36 70  1  0  0  0  0
 36 71  1  0  0  0  0
M  END
> <PUBCHEM_COMPOUND_CID>
137069068

> <PUBCHEM_COMPOUND_CANONICALIZED>
1

> <PUBCHEM_CACTVS_COMPLEXITY>
901

> <PUBCHEM_CACTVS_HBOND_ACCEPTOR>
10

> <PUBCHEM_CACTVS_HBOND_DONOR>
3

> <PUBCHEM_CACTVS_ROTATABLE_BOND>
10

> <PUBCHEM_CACTVS_SUBSKEYS>
AAADcfB7uAJAAAAAAAAAAAAAAAAAAWJAAAAgAAAAAAAAAEABgAAAHgQQCCAADFzl1gaHsBfMExioQQdxdICAgC1XELABUAGoVECDWApgyCAUQIgPAQLxAGDQEAIAAAAAAAAAAAAAAAAAAAAAAAAAAAAAAA==

> <PUBCHEM_IUPAC_OPENEYE_NAME>
ditert-butyl [5-[2-(dimethylaminomethyleneamino)-6-oxo-1H-purin-9-yl]-3,4-dihydroxy-tetrahydrothiophen-2-yl]methyl phosphate

> <PUBCHEM_IUPAC_CAS_NAME>
phosphoric acid ditert-butyl [5-[2-(dimethylaminomethylideneamino)-6-oxo-1H-purin-9-yl]-3,4-dihydroxy-2-thiolanyl]methyl ester

> <PUBCHEM_IUPAC_NAME_MARKUP>
di<I>tert</I>-butyl [5-[2-(dimethylaminomethylideneamino)-6-oxo-1<I>H</I>-purin-9-yl]-3,4-dihydroxythiolan-2-yl]methyl phosphate

> <PUBCHEM_IUPAC_NAME>
ditert-butyl [5-[2-(dimethylaminomethylideneamino)-6-oxo-1H-purin-9-yl]-3,4-dihydroxythiolan-2-yl]methyl phosphate

> <PUBCHEM_IUPAC_SYSTEMATIC_NAME>
ditert-butyl [5-[2-(dimethylaminomethylideneamino)-6-oxidanylidene-1H-purin-9-yl]-3,4-bis(oxidanyl)thiolan-2-yl]methyl phosphate

> <PUBCHEM_IUPAC_TRADITIONAL_NAME>
phosphoric acid ditert-butyl [5-[2-(dimethylaminomethyleneamino)-6-keto-1H-purin-9-yl]-3,4-dihydroxy-tetrahydrothiophen-2-yl]methyl ester

> <PUBCHEM_IUPAC_INCHI>
InChI=1S/C21H35N6O7PS/c1-20(2,3)33-35(31,34-21(4,5)6)32-9-12-14(28)15(29)18(36-12)27-11-22-13-16(27)24-19(25-17(13)30)23-10-26(7)8/h10-12,14-15,18,28-29H,9H2,1-8H3,(H,24,25,30)

> <PUBCHEM_IUPAC_INCHIKEY>
UIGRJMPZISYFHV-UHFFFAOYSA-N

> <PUBCHEM_XLOGP3_AA>
0.1

> <PUBCHEM_EXACT_MASS>
546.20255565

> <PUBCHEM_MOLECULAR_FORMULA>
C21H35N6O7PS

> <PUBCHEM_MOLECULAR_WEIGHT>
546.6

> <PUBCHEM_OPENEYE_CAN_SMILES>
CC(C)(C)OP(=O)(OCC1C(C(C(S1)N2C=NC3=C2N=C(NC3=O)N=CN(C)C)O)O)OC(C)(C)C

> <PUBCHEM_OPENEYE_ISO_SMILES>
CC(C)(C)OP(=O)(OCC1C(C(C(S1)N2C=NC3=C2N=C(NC3=O)N=CN(C)C)O)O)OC(C)(C)C

> <PUBCHEM_CACTVS_TPSA>
185

> <PUBCHEM_MONOISOTOPIC_WEIGHT>
546.20255565

> <PUBCHEM_TOTAL_CHARGE>
0

> <PUBCHEM_HEAVY_ATOM_COUNT>
36

> <PUBCHEM_ATOM_DEF_STEREO_COUNT>
0

> <PUBCHEM_ATOM_UDEF_STEREO_COUNT>
4

> <PUBCHEM_BOND_DEF_STEREO_COUNT>
0

> <PUBCHEM_BOND_UDEF_STEREO_COUNT>
1

> <PUBCHEM_ISOTOPIC_ATOM_COUNT>
0

> <PUBCHEM_COMPONENT_COUNT>
1

> <PUBCHEM_CACTVS_TAUTO_COUNT>
-1

> <PUBCHEM_COORDINATE_TYPE>
1
5
255

> <PUBCHEM_BONDANNOTATIONS>
19  10  3
10  21  8
10  22  8
11  22  8
11  23  8
12  21  8
12  27  8
13  26  8
13  27  8
14  34  1
18  20  3
21  23  8
23  26  8
16  3  3
17  4  3

$$$$
