 
  -OEChem-10192103542D

 30 33  0     1  0  0  0  0  0999 V2000
    6.2204    0.1185    0.0000 O   0  0  0  0  0  0  0  0  0  0  0  0
    3.7169    2.7124    0.0000 O   0  0  0  0  0  0  0  0  0  0  0  0
    6.5112   -2.1988    0.0000 O   0  0  0  0  0  0  0  0  0  0  0  0
    8.4087    0.0413    0.0000 O   0  0  0  0  0  0  0  0  0  0  0  0
    7.9463   -1.2290    0.0000 O   0  0  0  0  0  0  0  0  0  0  0  0
    7.9327    1.7067    0.0000 O   0  0  0  0  0  0  0  0  0  0  0  0
    4.6118    0.1719    0.0000 C   0  0  1  0  0  0  0  0  0  0  0  0
    4.9539    1.1116    0.0000 C   0  0  2  0  0  0  0  0  0  0  0  0
    5.3968   -0.4381    0.0000 C   0  0  1  0  0  0  0  0  0  0  0  0
    5.9473    1.0743    0.0000 C   0  0  2  0  0  0  0  0  0  0  0  0
    6.3889   -0.4710    0.0000 C   0  0  3  0  0  0  0  0  0  0  0  0
    6.7284    0.4618    0.0000 C   0  0  3  0  0  0  0  0  0  0  0  0
    3.2391    0.7639    0.0000 C   0  0  2  0  0  0  0  0  0  0  0  0
    2.9803    1.7298    0.0000 C   0  0  1  0  0  0  0  0  0  0  0  0
    1.8402    0.2551    0.0000 C   0  0  0  0  0  0  0  0  0  0  0  0
    1.5814    1.2210    0.0000 C   0  0  0  0  0  0  0  0  0  0  0  0
    6.9488   -1.2996    0.0000 C   0  0  0  0  0  0  0  0  0  0  0  0
    7.6899    0.7366    0.0000 C   0  0  0  0  0  0  0  0  0  0  0  0
    4.3211   -0.6268    0.0000 H   0  0  0  0  0  0  0  0  0  0  0  0
    5.2446    1.9103    0.0000 H   0  0  0  0  0  0  0  0  0  0  0  0
    5.3686   -1.2876    0.0000 H   0  0  0  0  0  0  0  0  0  0  0  0
    6.4717    1.7432    0.0000 H   0  0  0  0  0  0  0  0  0  0  0  0
    6.0890   -1.0137    0.0000 H   0  0  0  0  0  0  0  0  0  0  0  0
    7.1511    0.0082    0.0000 H   0  0  0  0  0  0  0  0  0  0  0  0
    3.4591   -0.0571    0.0000 H   0  0  0  0  0  0  0  0  0  0  0  0
    2.7603    2.5509    0.0000 H   0  0  0  0  0  0  0  0  0  0  0  0
    1.5539   -0.2948    0.0000 H   0  0  0  0  0  0  0  0  0  0  0  0
    1.0315    1.5074    0.0000 H   0  0  0  0  0  0  0  0  0  0  0  0
    6.8584   -2.7124    0.0000 H   0  0  0  0  0  0  0  0  0  0  0  0
    9.0048    0.2117    0.0000 H   0  0  0  0  0  0  0  0  0  0  0  0
  1  9  1  0  0  0  0
  1 10  1  0  0  0  0
  2 13  1  0  0  0  0
  2 14  1  0  0  0  0
  3 17  1  0  0  0  0
  3 29  1  0  0  0  0
  4 18  1  0  0  0  0
  4 30  1  0  0  0  0
  5 17  2  0  0  0  0
  6 18  2  0  0  0  0
  7  8  1  0  0  0  0
  7  9  1  0  0  0  0
  7 13  1  0  0  0  0
  7 19  1  6  0  0  0
  8 10  1  0  0  0  0
  8 14  1  0  0  0  0
  8 20  1  6  0  0  0
  9 11  1  0  0  0  0
  9 21  1  1  0  0  0
 10 12  1  0  0  0  0
 10 22  1  1  0  0  0
 11 12  1  0  0  0  0
 11 17  1  0  0  0  0
 11 23  1  0  0  0  0
 12 18  1  0  0  0  0
 12 24  1  0  0  0  0
 13 15  1  0  0  0  0
 13 25  1  1  0  0  0
 14 16  1  0  0  0  0
 14 26  1  6  0  0  0
 15 16  2  0  0  0  0
 15 27  1  0  0  0  0
 16 28  1  0  0  0  0
M  END
> <PUBCHEM_COMPOUND_CID>
10332424

> <PUBCHEM_COMPOUND_CANONICALIZED>
1

> <PUBCHEM_CACTVS_COMPLEXITY>
431

> <PUBCHEM_CACTVS_HBOND_ACCEPTOR>
6

> <PUBCHEM_CACTVS_HBOND_DONOR>
2

> <PUBCHEM_CACTVS_ROTATABLE_BOND>
2

> <PUBCHEM_CACTVS_SUBSKEYS>
AAADccBwOAAAAAAAAAAAAAAAAAAAASJEiAAwQAAAAAASAAAAAAAAGgAACAAADRSggAIACAAABgCIACDSCAAAAAAgAAAICAEAAAgABBYAIQACUAAFoAAIIAPL7PzOgAAAAAAAAACAAAYAADAAAAAAAAAAAA==

> <PUBCHEM_IUPAC_OPENEYE_NAME>
(1S,2R,3S,6R,7S,8R)-11,12-dioxatetracyclo[6.2.1.13,6.02,7]dodec-9-ene-4,5-dicarboxylic acid

> <PUBCHEM_IUPAC_CAS_NAME>
(1S,2R,3S,6R,7S,8R)-11,12-dioxatetracyclo[6.2.1.13,6.02,7]dodec-9-ene-4,5-dicarboxylic acid

> <PUBCHEM_IUPAC_NAME_MARKUP>
(1<I>S</I>,2<I>R</I>,3<I>S</I>,6<I>R</I>,7<I>S</I>,8<I>R</I>)-11,12-dioxatetracyclo[6.2.1.1<SUP>3,6</SUP>.0<SUP>2,7</SUP>]dodec-9-ene-4,5-dicarboxylic acid

> <PUBCHEM_IUPAC_NAME>
(1S,2R,3S,6R,7S,8R)-11,12-dioxatetracyclo[6.2.1.13,6.02,7]dodec-9-ene-4,5-dicarboxylic acid

> <PUBCHEM_IUPAC_SYSTEMATIC_NAME>
(1S,2R,3S,6R,7S,8R)-11,12-dioxatetracyclo[6.2.1.13,6.02,7]dodec-9-ene-4,5-dicarboxylic acid

> <PUBCHEM_IUPAC_TRADITIONAL_NAME>
(1S,2R,3S,6R,7S,8R)-11,12-dioxatetracyclo[6.2.1.13,6.02,7]dodec-9-ene-4,5-dicarboxylic acid

> <PUBCHEM_IUPAC_INCHI>
InChI=1S/C12H12O6/c13-11(14)7-8(12(15)16)10-6-4-2-1-3(17-4)5(6)9(7)18-10/h1-10H,(H,13,14)(H,15,16)/t3-,4+,5-,6+,7?,8?,9-,10+

> <PUBCHEM_IUPAC_INCHIKEY>
ODJGMHFUJWNROE-FCNXZSIQSA-N

> <PUBCHEM_XLOGP3_AA>
-0.7

> <PUBCHEM_EXACT_MASS>
252.06338810

> <PUBCHEM_MOLECULAR_FORMULA>
C12H12O6

> <PUBCHEM_MOLECULAR_WEIGHT>
252.22

> <PUBCHEM_OPENEYE_CAN_SMILES>
C1=CC2C3C(C1O2)C4C(C(C3O4)C(=O)O)C(=O)O

> <PUBCHEM_OPENEYE_ISO_SMILES>
C1=C[C@H]2[C@H]3[C@@H]([C@@H]1O2)[C@@H]4C(C([C@H]3O4)C(=O)O)C(=O)O

> <PUBCHEM_CACTVS_TPSA>
93.1

> <PUBCHEM_MONOISOTOPIC_WEIGHT>
252.06338810

> <PUBCHEM_TOTAL_CHARGE>
0

> <PUBCHEM_HEAVY_ATOM_COUNT>
18

> <PUBCHEM_ATOM_DEF_STEREO_COUNT>
6

> <PUBCHEM_ATOM_UDEF_STEREO_COUNT>
2

> <PUBCHEM_BOND_DEF_STEREO_COUNT>
0

> <PUBCHEM_BOND_UDEF_STEREO_COUNT>
0

> <PUBCHEM_ISOTOPIC_ATOM_COUNT>
0

> <PUBCHEM_COMPONENT_COUNT>
1

> <PUBCHEM_CACTVS_TAUTO_COUNT>
-1

> <PUBCHEM_COORDINATE_TYPE>
1
5
255

> <PUBCHEM_BONDANNOTATIONS>
10  22  5
11  17  3
12  18  3
13  25  5
14  26  6
7  19  6
8  20  6
9  21  5

$$$$
