 
  -OEChem-10192104382D

 40 42  0     1  0  0  0  0  0999 V2000
   11.1870    1.4440    0.0000 O   0  0  0  0  0  0  0  0  0  0  0  0
   11.0399   -1.8365    0.0000 O   0  0  0  0  0  0  0  0  0  0  0  0
    8.6777   -0.1002    0.0000 O   0  0  0  0  0  0  0  0  0  0  0  0
   13.8225    0.0866    0.0000 O   0  0  0  0  0  0  0  0  0  0  0  0
    9.3550    1.2028    0.0000 O   0  0  0  0  0  0  0  0  0  0  0  0
    7.9457   -1.6700    0.0000 O   0  0  0  0  0  0  0  0  0  0  0  0
    4.1462    2.0128    0.0000 O   0  0  0  0  0  0  0  0  0  0  0  0
    2.5079    0.8657    0.0000 O   0  0  0  0  0  0  0  0  0  0  0  0
   11.2988   -0.8705    0.0000 C   0  0  3  0  0  0  0  0  0  0  0  0
   11.5576    0.0954    0.0000 C   0  0  3  0  0  0  0  0  0  0  0  0
    9.5840   -0.5229    0.0000 C   0  0  3  0  0  0  0  0  0  0  0  0
    9.9260   -1.4626    0.0000 C   0  0  0  0  0  0  0  0  0  0  0  0
   12.9565   -0.4134    0.0000 C   0  0  3  0  0  0  0  0  0  0  0  0
   12.6977   -1.3794    0.0000 C   0  0  0  0  0  0  0  0  0  0  0  0
   10.3210    0.9440    0.0000 C   0  0  0  0  0  0  0  0  0  0  0  0
    7.8586   -0.6738    0.0000 C   0  0  0  0  0  0  0  0  0  0  0  0
    6.9523   -0.2512    0.0000 C   0  0  0  0  0  0  0  0  0  0  0  0
    6.1331   -0.8248    0.0000 C   0  0  0  0  0  0  0  0  0  0  0  0
    5.2268   -0.4022    0.0000 C   0  0  0  0  0  0  0  0  0  0  0  0
    5.1396    0.5940    0.0000 C   0  0  0  0  0  0  0  0  0  0  0  0
    4.4076   -0.9757    0.0000 C   0  0  0  0  0  0  0  0  0  0  0  0
    4.2333    1.0166    0.0000 C   0  0  0  0  0  0  0  0  0  0  0  0
    3.5013   -0.5531    0.0000 C   0  0  0  0  0  0  0  0  0  0  0  0
    3.4142    0.4431    0.0000 C   0  0  0  0  0  0  0  0  0  0  0  0
   11.5435   -0.5245    0.0000 H   0  0  0  0  0  0  0  0  0  0  0  0
    9.6252    0.0958    0.0000 H   0  0  0  0  0  0  0  0  0  0  0  0
    9.3476   -1.6858    0.0000 H   0  0  0  0  0  0  0  0  0  0  0  0
   10.1605   -2.0365    0.0000 H   0  0  0  0  0  0  0  0  0  0  0  0
   13.4484   -0.7909    0.0000 H   0  0  0  0  0  0  0  0  0  0  0  0
   12.5028   -1.9679    0.0000 H   0  0  0  0  0  0  0  0  0  0  0  0
   13.2917   -1.5571    0.0000 H   0  0  0  0  0  0  0  0  0  0  0  0
   11.4783   -2.2749    0.0000 H   0  0  0  0  0  0  0  0  0  0  0  0
   14.3595   -0.2234    0.0000 H   0  0  0  0  0  0  0  0  0  0  0  0
    6.8982    0.3664    0.0000 H   0  0  0  0  0  0  0  0  0  0  0  0
    6.1871   -1.4424    0.0000 H   0  0  0  0  0  0  0  0  0  0  0  0
    5.6475    0.9496    0.0000 H   0  0  0  0  0  0  0  0  0  0  0  0
    4.4617   -1.5934    0.0000 H   0  0  0  0  0  0  0  0  0  0  0  0
    2.9935   -0.9087    0.0000 H   0  0  0  0  0  0  0  0  0  0  0  0
    3.5843    2.2749    0.0000 H   0  0  0  0  0  0  0  0  0  0  0  0
    2.0000    0.5101    0.0000 H   0  0  0  0  0  0  0  0  0  0  0  0
  1 10  1  0  0  0  0
  1 15  1  0  0  0  0
  2  9  1  0  0  0  0
  2 32  1  0  0  0  0
  3 11  1  0  0  0  0
  3 16  1  0  0  0  0
  4 13  1  0  0  0  0
  4 33  1  0  0  0  0
  5 15  2  0  0  0  0
  6 16  2  0  0  0  0
  7 22  1  0  0  0  0
  7 39  1  0  0  0  0
  8 24  1  0  0  0  0
  8 40  1  0  0  0  0
  9 12  1  0  0  0  0
  9 14  1  0  0  0  0
  9 15  1  0  0  0  0
 10 11  1  0  0  0  0
 10 13  1  0  0  0  0
 10 25  1  0  0  0  0
 11 12  1  0  0  0  0
 11 26  1  0  0  0  0
 12 27  1  0  0  0  0
 12 28  1  0  0  0  0
 13 14  1  0  0  0  0
 13 29  1  0  0  0  0
 14 30  1  0  0  0  0
 14 31  1  0  0  0  0
 16 17  1  0  0  0  0
 17 18  2  0  0  0  0
 17 34  1  0  0  0  0
 18 19  1  0  0  0  0
 18 35  1  0  0  0  0
 19 20  2  0  0  0  0
 19 21  1  0  0  0  0
 20 22  1  0  0  0  0
 20 36  1  0  0  0  0
 21 23  2  0  0  0  0
 21 37  1  0  0  0  0
 22 24  2  0  0  0  0
 23 24  1  0  0  0  0
 23 38  1  0  0  0  0
M  END
> <PUBCHEM_COMPOUND_CID>
58771499

> <PUBCHEM_COMPOUND_CANONICALIZED>
1

> <PUBCHEM_CACTVS_COMPLEXITY>
546

> <PUBCHEM_CACTVS_HBOND_ACCEPTOR>
8

> <PUBCHEM_CACTVS_HBOND_DONOR>
4

> <PUBCHEM_CACTVS_ROTATABLE_BOND>
4

> <PUBCHEM_CACTVS_SUBSKEYS>
AAADceB4PAAAAAAAAAAAAAAAAAAAAAAAAAA0aIEAAAAAAAABAAAAGgAACAAADFSgmAIwDoAABgCIAiDSCAICAAAgIAAIiAFGiMgJNjKCMRKCcAElwBELuYfK7DzOIAABAAAAQABCAAIQAACAAAAAAAAAAA==

> <PUBCHEM_IUPAC_OPENEYE_NAME>
(4,7-dihydroxy-3-oxo-2-oxabicyclo[2.2.2]octan-6-yl) (E)-3-(3,4-dihydroxyphenyl)prop-2-enoate

> <PUBCHEM_IUPAC_CAS_NAME>
(E)-3-(3,4-dihydroxyphenyl)-2-propenoic acid (4,7-dihydroxy-3-oxo-2-oxabicyclo[2.2.2]octan-6-yl) ester

> <PUBCHEM_IUPAC_NAME_MARKUP>
(4,7-dihydroxy-3-oxo-2-oxabicyclo[2.2.2]octan-6-yl) (<I>E</I>)-3-(3,4-dihydroxyphenyl)prop-2-enoate

> <PUBCHEM_IUPAC_NAME>
(4,7-dihydroxy-3-oxo-2-oxabicyclo[2.2.2]octan-6-yl) (E)-3-(3,4-dihydroxyphenyl)prop-2-enoate

> <PUBCHEM_IUPAC_SYSTEMATIC_NAME>
[4,7-bis(oxidanyl)-3-oxidanylidene-2-oxabicyclo[2.2.2]octan-6-yl] (E)-3-[3,4-bis(oxidanyl)phenyl]prop-2-enoate

> <PUBCHEM_IUPAC_TRADITIONAL_NAME>
(E)-3-(3,4-dihydroxyphenyl)acrylic acid (4,7-dihydroxy-3-keto-2-oxabicyclo[2.2.2]octan-6-yl) ester

> <PUBCHEM_IUPAC_INCHI>
InChI=1S/C16H16O8/c17-9-3-1-8(5-10(9)18)2-4-13(20)23-12-7-16(22)6-11(19)14(12)24-15(16)21/h1-5,11-12,14,17-19,22H,6-7H2/b4-2+

> <PUBCHEM_IUPAC_INCHIKEY>
FQWIGABQXQPKSY-DUXPYHPUSA-N

> <PUBCHEM_XLOGP3_AA>
0.4

> <PUBCHEM_EXACT_MASS>
336.08451746

> <PUBCHEM_MOLECULAR_FORMULA>
C16H16O8

> <PUBCHEM_MOLECULAR_WEIGHT>
336.29

> <PUBCHEM_OPENEYE_CAN_SMILES>
C1C(C2C(CC1(C(=O)O2)O)OC(=O)C=CC3=CC(=C(C=C3)O)O)O

> <PUBCHEM_OPENEYE_ISO_SMILES>
C1C(C2C(CC1(C(=O)O2)O)OC(=O)/C=C/C3=CC(=C(C=C3)O)O)O

> <PUBCHEM_CACTVS_TPSA>
134

> <PUBCHEM_MONOISOTOPIC_WEIGHT>
336.08451746

> <PUBCHEM_TOTAL_CHARGE>
0

> <PUBCHEM_HEAVY_ATOM_COUNT>
24

> <PUBCHEM_ATOM_DEF_STEREO_COUNT>
0

> <PUBCHEM_ATOM_UDEF_STEREO_COUNT>
4

> <PUBCHEM_BOND_DEF_STEREO_COUNT>
1

> <PUBCHEM_BOND_UDEF_STEREO_COUNT>
0

> <PUBCHEM_ISOTOPIC_ATOM_COUNT>
0

> <PUBCHEM_COMPONENT_COUNT>
1

> <PUBCHEM_CACTVS_TAUTO_COUNT>
-1

> <PUBCHEM_COORDINATE_TYPE>
1
5
255

> <PUBCHEM_BONDANNOTATIONS>
10  1  3
19  20  8
19  21  8
9  2  3
20  22  8
21  23  8
22  24  8
23  24  8
11  3  3
13  4  3

$$$$
