 
  -OEChem-10192103552D

 92 94  0     1  0  0  0  0  0999 V2000
    8.5991    5.4050    0.0000 P   0  0  3  0  0  0  0  0  0  0  0  0
    8.5991   -0.5950    0.0000 O   0  0  0  0  0  0  0  0  0  0  0  0
    6.8671   -3.5950    0.0000 O   0  0  0  0  0  0  0  0  0  0  0  0
    6.8671   -0.5950    0.0000 O   0  0  0  0  0  0  0  0  0  0  0  0
    5.1350   -3.5950    0.0000 O   0  0  0  0  0  0  0  0  0  0  0  0
    8.5991    2.4050    0.0000 O   0  0  0  0  0  0  0  0  0  0  0  0
    8.5991   -2.5950    0.0000 O   0  0  0  0  0  0  0  0  0  0  0  0
    5.1350   -2.5950    0.0000 O   0  0  0  0  0  0  0  0  0  0  0  0
   10.3312    2.4050    0.0000 O   0  0  0  0  0  0  0  0  0  0  0  0
    6.8671    0.4050    0.0000 O   0  0  0  0  0  0  0  0  0  0  0  0
    6.8671   -5.5950    0.0000 O   0  0  0  0  0  0  0  0  0  0  0  0
   10.3312    0.4050    0.0000 O   0  0  0  0  0  0  0  0  0  0  0  0
    5.1350   -6.5950    0.0000 O   0  0  0  0  0  0  0  0  0  0  0  0
    3.4030   -5.5950    0.0000 O   0  0  0  0  0  0  0  0  0  0  0  0
    5.1350    0.4050    0.0000 O   0  0  0  0  0  0  0  0  0  0  0  0
    2.5369   -4.0950    0.0000 O   0  0  0  0  0  0  0  0  0  0  0  0
   12.0632    3.4050    0.0000 O   0  0  0  0  0  0  0  0  0  0  0  0
    9.4651    4.9050    0.0000 O   0  0  0  0  0  0  0  0  0  0  0  0
   12.0632    5.4050    0.0000 O   0  0  0  0  0  0  0  0  0  0  0  0
   10.3312    5.4050    0.0000 O   0  0  0  0  0  0  0  0  0  0  0  0
    7.7331    5.9050    0.0000 O   0  0  0  0  0  0  0  0  0  0  0  0
    9.0991    6.2710    0.0000 O   0  0  0  0  0  0  0  0  0  0  0  0
    8.0991    4.5390    0.0000 O   0  0  0  0  0  0  0  0  0  0  0  0
    6.8671   -2.5950    0.0000 C   0  0  3  0  0  0  0  0  0  0  0  0
    7.7331   -2.0950    0.0000 C   0  0  3  0  0  0  0  0  0  0  0  0
    6.0010   -2.0950    0.0000 C   0  0  3  0  0  0  0  0  0  0  0  0
    7.7331   -1.0950    0.0000 C   0  0  3  0  0  0  0  0  0  0  0  0
    8.5991    0.4050    0.0000 C   0  0  3  0  0  0  0  0  0  0  0  0
    6.0010   -1.0950    0.0000 C   0  0  3  0  0  0  0  0  0  0  0  0
    7.7331    0.9050    0.0000 C   0  0  3  0  0  0  0  0  0  0  0  0
    9.4651    0.9050    0.0000 C   0  0  3  0  0  0  0  0  0  0  0  0
    6.0010   -4.0950    0.0000 C   0  0  3  0  0  0  0  0  0  0  0  0
    6.0010   -5.0950    0.0000 C   0  0  3  0  0  0  0  0  0  0  0  0
    7.7331    1.9050    0.0000 C   0  0  3  0  0  0  0  0  0  0  0  0
    9.4651    1.9050    0.0000 C   0  0  3  0  0  0  0  0  0  0  0  0
    5.1350   -5.5950    0.0000 C   0  0  3  0  0  0  0  0  0  0  0  0
    4.2690   -5.0950    0.0000 C   0  0  3  0  0  0  0  0  0  0  0  0
    4.2690   -4.0950    0.0000 C   0  0  3  0  0  0  0  0  0  0  0  0
    5.1350   -0.5950    0.0000 C   0  0  0  0  0  0  0  0  0  0  0  0
    6.8671    2.4050    0.0000 C   0  0  0  0  0  0  0  0  0  0  0  0
    3.4030   -3.5950    0.0000 C   0  0  0  0  0  0  0  0  0  0  0  0
   10.3312    3.4050    0.0000 C   0  0  3  0  0  0  0  0  0  0  0  0
   11.1972    3.9050    0.0000 C   0  0  3  0  0  0  0  0  0  0  0  0
    9.4651    3.9050    0.0000 C   0  0  0  0  0  0  0  0  0  0  0  0
    6.8671   -6.5950    0.0000 C   0  0  0  0  0  0  0  0  0  0  0  0
   11.1972    4.9050    0.0000 C   0  0  0  0  0  0  0  0  0  0  0  0
    7.7331    6.9050    0.0000 C   0  0  0  0  0  0  0  0  0  0  0  0
    6.3301   -2.9050    0.0000 H   0  0  0  0  0  0  0  0  0  0  0  0
    7.7331   -2.7150    0.0000 H   0  0  0  0  0  0  0  0  0  0  0  0
    6.0010   -2.7150    0.0000 H   0  0  0  0  0  0  0  0  0  0  0  0
    8.2700   -1.4050    0.0000 H   0  0  0  0  0  0  0  0  0  0  0  0
    8.0622    0.0950    0.0000 H   0  0  0  0  0  0  0  0  0  0  0  0
    6.0010   -0.4750    0.0000 H   0  0  0  0  0  0  0  0  0  0  0  0
    7.1962    1.2150    0.0000 H   0  0  0  0  0  0  0  0  0  0  0  0
   10.0021    1.2150    0.0000 H   0  0  0  0  0  0  0  0  0  0  0  0
    6.0010   -3.4750    0.0000 H   0  0  0  0  0  0  0  0  0  0  0  0
    6.0010   -5.7150    0.0000 H   0  0  0  0  0  0  0  0  0  0  0  0
    7.7331    2.5250    0.0000 H   0  0  0  0  0  0  0  0  0  0  0  0
    9.4651    2.5250    0.0000 H   0  0  0  0  0  0  0  0  0  0  0  0
    4.5981   -5.9050    0.0000 H   0  0  0  0  0  0  0  0  0  0  0  0
    4.2690   -5.7150    0.0000 H   0  0  0  0  0  0  0  0  0  0  0  0
    4.2690   -3.4750    0.0000 H   0  0  0  0  0  0  0  0  0  0  0  0
    4.5244   -0.4873    0.0000 H   0  0  0  0  0  0  0  0  0  0  0  0
    4.9230   -1.1776    0.0000 H   0  0  0  0  0  0  0  0  0  0  0  0
    9.1360   -2.2850    0.0000 H   0  0  0  0  0  0  0  0  0  0  0  0
    7.1771    2.9419    0.0000 H   0  0  0  0  0  0  0  0  0  0  0  0
    6.3301    2.7150    0.0000 H   0  0  0  0  0  0  0  0  0  0  0  0
    6.5571    1.8681    0.0000 H   0  0  0  0  0  0  0  0  0  0  0  0
    4.5981   -2.2850    0.0000 H   0  0  0  0  0  0  0  0  0  0  0  0
    3.8015   -3.1200    0.0000 H   0  0  0  0  0  0  0  0  0  0  0  0
    3.0044   -3.1200    0.0000 H   0  0  0  0  0  0  0  0  0  0  0  0
    6.3301    0.7150    0.0000 H   0  0  0  0  0  0  0  0  0  0  0  0
    9.7942    3.0950    0.0000 H   0  0  0  0  0  0  0  0  0  0  0  0
   10.8681    0.7150    0.0000 H   0  0  0  0  0  0  0  0  0  0  0  0
    4.5981   -6.9050    0.0000 H   0  0  0  0  0  0  0  0  0  0  0  0
    3.4030   -6.2150    0.0000 H   0  0  0  0  0  0  0  0  0  0  0  0
   11.1972    3.2850    0.0000 H   0  0  0  0  0  0  0  0  0  0  0  0
    4.5981    0.7150    0.0000 H   0  0  0  0  0  0  0  0  0  0  0  0
    8.8546    4.0127    0.0000 H   0  0  0  0  0  0  0  0  0  0  0  0
    9.2531    3.3224    0.0000 H   0  0  0  0  0  0  0  0  0  0  0  0
    6.2471   -6.5950    0.0000 H   0  0  0  0  0  0  0  0  0  0  0  0
    6.8671   -7.2150    0.0000 H   0  0  0  0  0  0  0  0  0  0  0  0
    7.4871   -6.5950    0.0000 H   0  0  0  0  0  0  0  0  0  0  0  0
    2.0000   -3.7850    0.0000 H   0  0  0  0  0  0  0  0  0  0  0  0
   10.6603    4.5950    0.0000 H   0  0  0  0  0  0  0  0  0  0  0  0
   12.6002    3.7150    0.0000 H   0  0  0  0  0  0  0  0  0  0  0  0
   12.0632    6.0250    0.0000 H   0  0  0  0  0  0  0  0  0  0  0  0
   10.3312    6.0250    0.0000 H   0  0  0  0  0  0  0  0  0  0  0  0
    8.7891    6.8080    0.0000 H   0  0  0  0  0  0  0  0  0  0  0  0
    8.3531    6.9050    0.0000 H   0  0  0  0  0  0  0  0  0  0  0  0
    7.7331    7.5250    0.0000 H   0  0  0  0  0  0  0  0  0  0  0  0
    7.1131    6.9050    0.0000 H   0  0  0  0  0  0  0  0  0  0  0  0
  1 18  1  0  0  0  0
  1 21  1  0  0  0  0
  1 22  1  0  0  0  0
  1 23  2  0  0  0  0
  2 27  1  0  0  0  0
  2 28  1  0  0  0  0
  3 24  1  0  0  0  0
  3 32  1  0  0  0  0
  4 27  1  0  0  0  0
  4 29  1  0  0  0  0
  5 32  1  0  0  0  0
  5 38  1  0  0  0  0
  6 34  1  0  0  0  0
  6 35  1  0  0  0  0
  7 25  1  0  0  0  0
  7 65  1  0  0  0  0
  8 26  1  0  0  0  0
  8 69  1  0  0  0  0
  9 35  1  0  0  0  0
  9 42  1  0  0  0  0
 10 30  1  0  0  0  0
 10 72  1  0  0  0  0
 11 33  1  0  0  0  0
 11 45  1  0  0  0  0
 12 31  1  0  0  0  0
 12 74  1  0  0  0  0
 13 36  1  0  0  0  0
 13 75  1  0  0  0  0
 14 37  1  0  0  0  0
 14 76  1  0  0  0  0
 15 39  1  0  0  0  0
 15 78  1  0  0  0  0
 16 41  1  0  0  0  0
 16 84  1  0  0  0  0
 17 43  1  0  0  0  0
 17 86  1  0  0  0  0
 18 44  1  0  0  0  0
 19 46  1  0  0  0  0
 19 87  1  0  0  0  0
 20 46  1  0  0  0  0
 20 88  1  0  0  0  0
 21 47  1  0  0  0  0
 22 89  1  0  0  0  0
 24 25  1  0  0  0  0
 24 26  1  0  0  0  0
 24 48  1  0  0  0  0
 25 27  1  0  0  0  0
 25 49  1  0  0  0  0
 26 29  1  0  0  0  0
 26 50  1  0  0  0  0
 27 51  1  0  0  0  0
 28 30  1  0  0  0  0
 28 31  1  0  0  0  0
 28 52  1  0  0  0  0
 29 39  1  0  0  0  0
 29 53  1  0  0  0  0
 30 34  1  0  0  0  0
 30 54  1  0  0  0  0
 31 35  1  0  0  0  0
 31 55  1  0  0  0  0
 32 33  1  0  0  0  0
 32 56  1  0  0  0  0
 33 36  1  0  0  0  0
 33 57  1  0  0  0  0
 34 40  1  0  0  0  0
 34 58  1  0  0  0  0
 35 59  1  0  0  0  0
 36 37  1  0  0  0  0
 36 60  1  0  0  0  0
 37 38  1  0  0  0  0
 37 61  1  0  0  0  0
 38 41  1  0  0  0  0
 38 62  1  0  0  0  0
 39 63  1  0  0  0  0
 39 64  1  0  0  0  0
 40 66  1  0  0  0  0
 40 67  1  0  0  0  0
 40 68  1  0  0  0  0
 41 70  1  0  0  0  0
 41 71  1  0  0  0  0
 42 43  1  0  0  0  0
 42 44  1  0  0  0  0
 42 73  1  0  0  0  0
 43 46  1  0  0  0  0
 43 77  1  0  0  0  0
 44 79  1  0  0  0  0
 44 80  1  0  0  0  0
 45 81  1  0  0  0  0
 45 82  1  0  0  0  0
 45 83  1  0  0  0  0
 46 85  1  0  0  0  0
 47 90  1  0  0  0  0
 47 91  1  0  0  0  0
 47 92  1  0  0  0  0
M  END
> <PUBCHEM_COMPOUND_CID>
71128180

> <PUBCHEM_COMPOUND_CANONICALIZED>
1

> <PUBCHEM_CACTVS_COMPLEXITY>
995

> <PUBCHEM_CACTVS_HBOND_ACCEPTOR>
22

> <PUBCHEM_CACTVS_HBOND_DONOR>
12

> <PUBCHEM_CACTVS_ROTATABLE_BOND>
15

> <PUBCHEM_CACTVS_SUBSKEYS>
AAADcfB4PgIAAAAAAAAAAAAAAAAAAAAAAAAkSJAAAAAAAAAAAAAAGgAACCAACBSwgAMCCAAABxAAQAAAAIAAAAAAAAAAAAAAAAAREAIAAAAiQAAFAAAHAAHAYAwAAAAAAAAAAAAAAAAAAAAAAAAAAAAAAA==

> <PUBCHEM_IUPAC_OPENEYE_NAME>
[2-[4-[4-[4,5-dihydroxy-6-(hydroxymethyl)-3-methoxy-tetrahydropyran-2-yl]oxy-3,5-dihydroxy-6-(hydroxymethyl)tetrahydropyran-2-yl]oxy-3,5-dihydroxy-6-methyl-tetrahydropyran-2-yl]oxy-3,4,4-trihydroxy-butyl] methyl hydrogen phosphate

> <PUBCHEM_IUPAC_CAS_NAME>
[2-[[4-[[4-[[4,5-dihydroxy-6-(hydroxymethyl)-3-methoxy-2-oxanyl]oxy]-3,5-dihydroxy-6-(hydroxymethyl)-2-oxanyl]oxy]-3,5-dihydroxy-6-methyl-2-oxanyl]oxy]-3,4,4-trihydroxybutyl] methyl hydrogen phosphate

> <PUBCHEM_IUPAC_NAME_MARKUP>
[2-[4-[4-[4,5-dihydroxy-6-(hydroxymethyl)-3-methoxyoxan-2-yl]oxy-3,5-dihydroxy-6-(hydroxymethyl)oxan-2-yl]oxy-3,5-dihydroxy-6-methyloxan-2-yl]oxy-3,4,4-trihydroxybutyl] methyl hydrogen phosphate

> <PUBCHEM_IUPAC_NAME>
[2-[4-[4-[4,5-dihydroxy-6-(hydroxymethyl)-3-methoxyoxan-2-yl]oxy-3,5-dihydroxy-6-(hydroxymethyl)oxan-2-yl]oxy-3,5-dihydroxy-6-methyloxan-2-yl]oxy-3,4,4-trihydroxybutyl] methyl hydrogen phosphate

> <PUBCHEM_IUPAC_SYSTEMATIC_NAME>
[2-[4-[6-(hydroxymethyl)-4-[6-(hydroxymethyl)-3-methoxy-4,5-bis(oxidanyl)oxan-2-yl]oxy-3,5-bis(oxidanyl)oxan-2-yl]oxy-6-methyl-3,5-bis(oxidanyl)oxan-2-yl]oxy-3,4,4-tris(oxidanyl)butyl] methyl hydrogen phosphate

> <PUBCHEM_IUPAC_TRADITIONAL_NAME>
[2-[4-[4-(4,5-dihydroxy-3-methoxy-6-methylol-tetrahydropyran-2-yl)oxy-3,5-dihydroxy-6-methylol-tetrahydropyran-2-yl]oxy-3,5-dihydroxy-6-methyl-tetrahydropyran-2-yl]oxy-3,4,4-trihydroxy-butyl] methyl hydrogen phosphate

> <PUBCHEM_IUPAC_INCHI>
InChI=1S/C24H45O22P/c1-7-11(27)18(16(32)22(41-7)44-10(14(30)21(34)35)6-40-47(36,37)39-3)45-23-17(33)19(13(29)9(5-26)42-23)46-24-20(38-2)15(31)12(28)8(4-25)43-24/h7-35H,4-6H2,1-3H3,(H,36,37)

> <PUBCHEM_IUPAC_INCHIKEY>
QNCPSNAOFSCWHF-UHFFFAOYSA-N

> <PUBCHEM_XLOGP3_AA>
-7.2

> <PUBCHEM_EXACT_MASS>
716.21401006

> <PUBCHEM_MOLECULAR_FORMULA>
C24H45O22P

> <PUBCHEM_MOLECULAR_WEIGHT>
716.6

> <PUBCHEM_OPENEYE_CAN_SMILES>
CC1C(C(C(C(O1)OC(COP(=O)(O)OC)C(C(O)O)O)O)OC2C(C(C(C(O2)CO)O)OC3C(C(C(C(O3)CO)O)O)OC)O)O

> <PUBCHEM_OPENEYE_ISO_SMILES>
CC1C(C(C(C(O1)OC(COP(=O)(O)OC)C(C(O)O)O)O)OC2C(C(C(C(O2)CO)O)OC3C(C(C(C(O3)CO)O)O)OC)O)O

> <PUBCHEM_CACTVS_TPSA>
343

> <PUBCHEM_MONOISOTOPIC_WEIGHT>
716.21401006

> <PUBCHEM_TOTAL_CHARGE>
0

> <PUBCHEM_HEAVY_ATOM_COUNT>
47

> <PUBCHEM_ATOM_DEF_STEREO_COUNT>
0

> <PUBCHEM_ATOM_UDEF_STEREO_COUNT>
17

> <PUBCHEM_BOND_DEF_STEREO_COUNT>
0

> <PUBCHEM_BOND_UDEF_STEREO_COUNT>
0

> <PUBCHEM_ISOTOPIC_ATOM_COUNT>
0

> <PUBCHEM_COMPONENT_COUNT>
1

> <PUBCHEM_CACTVS_TAUTO_COUNT>
-1

> <PUBCHEM_COORDINATE_TYPE>
1
5
255

> <PUBCHEM_BONDANNOTATIONS>
30  10  3
33  11  3
31  12  3
36  13  3
37  14  3
43  17  3
27  2  3
28  2  3
29  39  3
24  3  3
32  3  3
34  40  3
38  41  3
42  44  3
25  7  3
26  8  3
35  9  3

$$$$
