 
  -OEChem-10192103502D

 72 75  0     1  0  0  0  0  0999 V2000
    6.0580    1.3463    0.0000 O   0  0  0  0  0  0  0  0  0  0  0  0
    9.3703    1.7064    0.0000 O   0  0  0  0  0  0  0  0  0  0  0  0
    8.9494    3.0018    0.0000 O   0  0  0  0  0  0  0  0  0  0  0  0
    5.1350   -3.2415    0.0000 O   0  0  0  0  0  0  0  0  0  0  0  0
    6.8671   -3.2415    0.0000 O   0  0  0  0  0  0  0  0  0  0  0  0
    5.1350   -6.2415    0.0000 O   0  0  0  0  0  0  0  0  0  0  0  0
    6.8671   -5.2415    0.0000 O   0  0  0  0  0  0  0  0  0  0  0  0
    3.4030   -5.2415    0.0000 O   0  0  0  0  0  0  0  0  0  0  0  0
    5.1350   -2.2415    0.0000 O   0  0  0  0  0  0  0  0  0  0  0  0
    6.0050    5.7425    0.0000 O   0  0  0  0  0  0  0  0  0  0  0  0
    2.5369   -3.7415    0.0000 O   0  0  0  0  0  0  0  0  0  0  0  0
    4.0159    5.5334    0.0000 O   0  0  0  0  0  0  0  0  0  0  0  0
    7.6761    1.3463    0.0000 C   0  0  2  0  0  0  0  0  0  0  0  0
    7.3671    2.2973    0.0000 C   0  0  2  0  0  0  0  0  0  0  0  0
    6.8671    0.7585    0.0000 C   0  0  2  0  0  0  0  0  0  0  0  0
    6.3671    2.2973    0.0000 C   0  0  2  0  0  0  0  0  0  0  0  0
    8.6271    1.0373    0.0000 C   0  0  0  0  0  0  0  0  0  0  0  0
    7.9548    3.1064    0.0000 C   0  0  0  0  0  0  0  0  0  0  0  0
    6.8671   -0.2415    0.0000 C   0  0  0  0  0  0  0  0  0  0  0  0
    5.7793    3.1064    0.0000 C   0  0  0  0  0  0  0  0  0  0  0  0
    6.0010   -0.7415    0.0000 C   0  0  0  0  0  0  0  0  0  0  0  0
    7.7331   -0.7415    0.0000 C   0  0  0  0  0  0  0  0  0  0  0  0
    5.1350   -5.2415    0.0000 C   0  0  2  0  0  0  0  0  0  0  0  0
    6.0010   -4.7415    0.0000 C   0  0  2  0  0  0  0  0  0  0  0  0
    4.2690   -4.7415    0.0000 C   0  0  1  0  0  0  0  0  0  0  0  0
    6.1860    4.0199    0.0000 C   0  0  0  0  0  0  0  0  0  0  0  0
    4.7848    3.0018    0.0000 C   0  0  0  0  0  0  0  0  0  0  0  0
    6.0010   -3.7415    0.0000 C   0  0  1  0  0  0  0  0  0  0  0  0
    4.2690   -3.7415    0.0000 C   0  0  1  0  0  0  0  0  0  0  0  0
    6.0010   -1.7415    0.0000 C   0  0  0  0  0  0  0  0  0  0  0  0
    6.8671   -2.2415    0.0000 C   0  0  0  0  0  0  0  0  0  0  0  0
    7.7331   -1.7415    0.0000 C   0  0  0  0  0  0  0  0  0  0  0  0
    5.5982    4.8289    0.0000 C   0  0  0  0  0  0  0  0  0  0  0  0
    4.1970    3.8109    0.0000 C   0  0  0  0  0  0  0  0  0  0  0  0
    3.4030   -3.2415    0.0000 C   0  0  0  0  0  0  0  0  0  0  0  0
    4.6037    4.7244    0.0000 C   0  0  0  0  0  0  0  0  0  0  0  0
    4.2690   -1.7415    0.0000 C   0  0  0  0  0  0  0  0  0  0  0  0
    5.4172    6.5515    0.0000 C   0  0  0  0  0  0  0  0  0  0  0  0
    8.1145    1.7847    0.0000 H   0  0  0  0  0  0  0  0  0  0  0  0
    7.0856    2.8498    0.0000 H   0  0  0  0  0  0  0  0  0  0  0  0
    7.4195    0.4770    0.0000 H   0  0  0  0  0  0  0  0  0  0  0  0
    5.7547    2.2004    0.0000 H   0  0  0  0  0  0  0  0  0  0  0  0
    8.3361    0.4898    0.0000 H   0  0  0  0  0  0  0  0  0  0  0  0
    9.1157    0.6556    0.0000 H   0  0  0  0  0  0  0  0  0  0  0  0
    8.1257    3.7024    0.0000 H   0  0  0  0  0  0  0  0  0  0  0  0
    7.3976    3.3782    0.0000 H   0  0  0  0  0  0  0  0  0  0  0  0
    5.4641   -0.4315    0.0000 H   0  0  0  0  0  0  0  0  0  0  0  0
    8.2700   -0.4315    0.0000 H   0  0  0  0  0  0  0  0  0  0  0  0
    4.5981   -5.5515    0.0000 H   0  0  0  0  0  0  0  0  0  0  0  0
    6.0010   -5.3615    0.0000 H   0  0  0  0  0  0  0  0  0  0  0  0
    4.2690   -5.3615    0.0000 H   0  0  0  0  0  0  0  0  0  0  0  0
    6.0010   -3.1215    0.0000 H   0  0  0  0  0  0  0  0  0  0  0  0
    6.8026    4.0847    0.0000 H   0  0  0  0  0  0  0  0  0  0  0  0
    4.2690   -3.1215    0.0000 H   0  0  0  0  0  0  0  0  0  0  0  0
    4.5326    2.4354    0.0000 H   0  0  0  0  0  0  0  0  0  0  0  0
    9.9599    1.5148    0.0000 H   0  0  0  0  0  0  0  0  0  0  0  0
    9.3138    3.5034    0.0000 H   0  0  0  0  0  0  0  0  0  0  0  0
    8.2700   -2.0515    0.0000 H   0  0  0  0  0  0  0  0  0  0  0  0
    3.8015   -2.7665    0.0000 H   0  0  0  0  0  0  0  0  0  0  0  0
    3.0044   -2.7665    0.0000 H   0  0  0  0  0  0  0  0  0  0  0  0
    3.5804    3.7460    0.0000 H   0  0  0  0  0  0  0  0  0  0  0  0
    5.6720   -6.5515    0.0000 H   0  0  0  0  0  0  0  0  0  0  0  0
    7.4040   -4.9315    0.0000 H   0  0  0  0  0  0  0  0  0  0  0  0
    3.4030   -5.8615    0.0000 H   0  0  0  0  0  0  0  0  0  0  0  0
    2.0000   -3.4315    0.0000 H   0  0  0  0  0  0  0  0  0  0  0  0
    3.3993    5.4686    0.0000 H   0  0  0  0  0  0  0  0  0  0  0  0
    4.5790   -1.2046    0.0000 H   0  0  0  0  0  0  0  0  0  0  0  0
    3.7320   -1.4315    0.0000 H   0  0  0  0  0  0  0  0  0  0  0  0
    3.9590   -2.2784    0.0000 H   0  0  0  0  0  0  0  0  0  0  0  0
    5.9188    6.9159    0.0000 H   0  0  0  0  0  0  0  0  0  0  0  0
    5.0527    7.0531    0.0000 H   0  0  0  0  0  0  0  0  0  0  0  0
    4.9156    6.1871    0.0000 H   0  0  0  0  0  0  0  0  0  0  0  0
  1 15  1  0  0  0  0
  1 16  1  0  0  0  0
  2 17  1  0  0  0  0
  2 56  1  0  0  0  0
  3 18  1  0  0  0  0
  3 57  1  0  0  0  0
  4 28  1  0  0  0  0
  4 29  1  0  0  0  0
 28  5  1  1  0  0  0
  5 31  1  0  0  0  0
 23  6  1  1  0  0  0
  6 62  1  0  0  0  0
 24  7  1  6  0  0  0
  7 63  1  0  0  0  0
 25  8  1  6  0  0  0
  8 64  1  0  0  0  0
  9 30  1  0  0  0  0
  9 37  1  0  0  0  0
 10 33  1  0  0  0  0
 10 38  1  0  0  0  0
 11 35  1  0  0  0  0
 11 65  1  0  0  0  0
 12 36  1  0  0  0  0
 12 66  1  0  0  0  0
 13 14  1  0  0  0  0
 13 15  1  0  0  0  0
 13 17  1  1  0  0  0
 13 39  1  0  0  0  0
 14 16  1  0  0  0  0
 14 18  1  6  0  0  0
 14 40  1  0  0  0  0
 15 19  1  6  0  0  0
 15 41  1  0  0  0  0
 16 20  1  1  0  0  0
 16 42  1  0  0  0  0
 17 43  1  0  0  0  0
 17 44  1  0  0  0  0
 18 45  1  0  0  0  0
 18 46  1  0  0  0  0
 19 21  2  0  0  0  0
 19 22  1  0  0  0  0
 20 26  2  0  0  0  0
 20 27  1  0  0  0  0
 21 30  1  0  0  0  0
 21 47  1  0  0  0  0
 22 32  2  0  0  0  0
 22 48  1  0  0  0  0
 23 24  1  0  0  0  0
 23 25  1  0  0  0  0
 23 49  1  0  0  0  0
 24 28  1  0  0  0  0
 24 50  1  0  0  0  0
 25 29  1  0  0  0  0
 25 51  1  0  0  0  0
 26 33  1  0  0  0  0
 26 53  1  0  0  0  0
 27 34  2  0  0  0  0
 27 55  1  0  0  0  0
 28 52  1  0  0  0  0
 29 35  1  1  0  0  0
 29 54  1  0  0  0  0
 30 31  2  0  0  0  0
 31 32  1  0  0  0  0
 32 58  1  0  0  0  0
 33 36  2  0  0  0  0
 34 36  1  0  0  0  0
 34 61  1  0  0  0  0
 35 59  1  0  0  0  0
 35 60  1  0  0  0  0
 37 67  1  0  0  0  0
 37 68  1  0  0  0  0
 37 69  1  0  0  0  0
 38 70  1  0  0  0  0
 38 71  1  0  0  0  0
 38 72  1  0  0  0  0
M  END
> <PUBCHEM_COMPOUND_CID>
11753020

> <PUBCHEM_COMPOUND_CANONICALIZED>
1

> <PUBCHEM_CACTVS_COMPLEXITY>
728

> <PUBCHEM_CACTVS_HBOND_ACCEPTOR>
12

> <PUBCHEM_CACTVS_HBOND_DONOR>
7

> <PUBCHEM_CACTVS_ROTATABLE_BOND>
9

> <PUBCHEM_CACTVS_SUBSKEYS>
AAADcfB4PAAAAAAAAAAAAAAAAAAAASAAAAA0YIAAAAAAAAABQAAAGgAACAAADRSwmAMyDoAABgCAAiBCAAACCAAgIAAIiAAGiIgdNiKGMRqieCOlwBEPuAfA4PwOoAABAAAAQABAAAIAAACAAAAAAAAAAA==

> <PUBCHEM_IUPAC_OPENEYE_NAME>
(2S,3R,4S,5S,6R)-2-[4-[(2R,3S,4S,5R)-5-(4-hydroxy-3-methoxy-phenyl)-3,4-bis(hydroxymethyl)tetrahydrofuran-2-yl]-2-methoxy-phenoxy]-6-(hydroxymethyl)tetrahydropyran-3,4,5-triol

> <PUBCHEM_IUPAC_CAS_NAME>
(2S,3R,4S,5S,6R)-2-[4-[(2R,3S,4S,5R)-5-(4-hydroxy-3-methoxyphenyl)-3,4-bis(hydroxymethyl)-2-oxolanyl]-2-methoxyphenoxy]-6-(hydroxymethyl)oxane-3,4,5-triol

> <PUBCHEM_IUPAC_NAME_MARKUP>
(2<I>S</I>,3<I>R</I>,4<I>S</I>,5<I>S</I>,6<I>R</I>)-2-[4-[(2<I>R</I>,3<I>S</I>,4<I>S</I>,5<I>R</I>)-5-(4-hydroxy-3-methoxyphenyl)-3,4-bis(hydroxymethyl)oxolan-2-yl]-2-methoxyphenoxy]-6-(hydroxymethyl)oxane-3,4,5-triol

> <PUBCHEM_IUPAC_NAME>
(2S,3R,4S,5S,6R)-2-[4-[(2R,3S,4S,5R)-5-(4-hydroxy-3-methoxyphenyl)-3,4-bis(hydroxymethyl)oxolan-2-yl]-2-methoxyphenoxy]-6-(hydroxymethyl)oxane-3,4,5-triol

> <PUBCHEM_IUPAC_SYSTEMATIC_NAME>
(2S,3R,4S,5S,6R)-2-[4-[(2R,3S,4S,5R)-3,4-bis(hydroxymethyl)-5-(3-methoxy-4-oxidanyl-phenyl)oxolan-2-yl]-2-methoxy-phenoxy]-6-(hydroxymethyl)oxane-3,4,5-triol

> <PUBCHEM_IUPAC_TRADITIONAL_NAME>
(2S,3R,4S,5S,6R)-2-[4-[(2R,3S,4S,5R)-5-(4-hydroxy-3-methoxy-phenyl)-3,4-dimethylol-tetrahydrofuran-2-yl]-2-methoxy-phenoxy]-6-methylol-tetrahydropyran-3,4,5-triol

> <PUBCHEM_IUPAC_INCHI>
InChI=1S/C26H34O12/c1-34-18-7-12(3-5-16(18)30)24-14(9-27)15(10-28)25(38-24)13-4-6-17(19(8-13)35-2)36-26-23(33)22(32)21(31)20(11-29)37-26/h3-8,14-15,20-33H,9-11H2,1-2H3/t14-,15-,20-,21-,22+,23-,24+,25+,26-/m1/s1

> <PUBCHEM_IUPAC_INCHIKEY>
DJRNHAFROSMVLC-JKUDBEEXSA-N

> <PUBCHEM_XLOGP3_AA>
-0.5

> <PUBCHEM_EXACT_MASS>
538.20502652

> <PUBCHEM_MOLECULAR_FORMULA>
C26H34O12

> <PUBCHEM_MOLECULAR_WEIGHT>
538.5

> <PUBCHEM_OPENEYE_CAN_SMILES>
COC1=C(C=CC(=C1)C2C(C(C(O2)C3=CC(=C(C=C3)OC4C(C(C(C(O4)CO)O)O)O)OC)CO)CO)O

> <PUBCHEM_OPENEYE_ISO_SMILES>
COC1=C(C=CC(=C1)[C@H]2[C@@H]([C@H]([C@@H](O2)C3=CC(=C(C=C3)O[C@H]4[C@@H]([C@H]([C@@H]([C@H](O4)CO)O)O)O)OC)CO)CO)O

> <PUBCHEM_CACTVS_TPSA>
188

> <PUBCHEM_MONOISOTOPIC_WEIGHT>
538.20502652

> <PUBCHEM_TOTAL_CHARGE>
0

> <PUBCHEM_HEAVY_ATOM_COUNT>
38

> <PUBCHEM_ATOM_DEF_STEREO_COUNT>
9

> <PUBCHEM_ATOM_UDEF_STEREO_COUNT>
0

> <PUBCHEM_BOND_DEF_STEREO_COUNT>
0

> <PUBCHEM_BOND_UDEF_STEREO_COUNT>
0

> <PUBCHEM_ISOTOPIC_ATOM_COUNT>
0

> <PUBCHEM_COMPONENT_COUNT>
1

> <PUBCHEM_CACTVS_TAUTO_COUNT>
-1

> <PUBCHEM_COORDINATE_TYPE>
1
5
255

> <PUBCHEM_BONDANNOTATIONS>
13  17  5
14  18  6
15  19  6
16  20  5
19  21  8
19  22  8
20  26  8
20  27  8
21  30  8
22  32  8
26  33  8
27  34  8
29  35  5
30  31  8
31  32  8
33  36  8
34  36  8
28  5  5
23  6  5
24  7  6
25  8  6

$$$$
