 
  -OEChem-10192104382D

 67 72  0     1  0  0  0  0  0999 V2000
    9.8781   -0.4974    0.0000 S   0  0  0  0  0  0  0  0  0  0  0  0
    7.3435   -2.2618    0.0000 O   0  0  0  0  0  0  0  0  0  0  0  0
   13.8479    1.7591    0.0000 O   0  0  0  0  0  0  0  0  0  0  0  0
    6.0873    0.0004    0.0000 O   0  0  0  0  0  0  0  0  0  0  0  0
   14.5439   -0.2101    0.0000 O   0  0  0  0  0  0  0  0  0  0  0  0
   10.4645   -1.3074    0.0000 O   0  0  0  0  0  0  0  0  0  0  0  0
    9.2917    0.3127    0.0000 O   0  0  0  0  0  0  0  0  0  0  0  0
    4.2690   -6.3244    0.0000 O   0  0  0  0  0  0  0  0  0  0  0  0
   15.3844    6.3244    0.0000 O   0  0  0  0  0  0  0  0  0  0  0  0
    6.0812   -3.5197    0.0000 N   0  0  0  0  0  0  0  0  0  0  0  0
   13.5722    3.5197    0.0000 N   0  0  0  0  0  0  0  0  0  0  0  0
    9.0681   -1.0837    0.0000 N   0  0  0  0  0  0  0  0  0  0  0  0
   10.6882    0.0890    0.0000 N   0  3  0  0  0  0  0  0  0  0  0  0
    6.0812   -5.1292    0.0000 N   0  0  0  0  0  0  0  0  0  0  0  0
   13.5722    5.1292    0.0000 N   0  0  0  0  0  0  0  0  0  0  0  0
    4.2690   -3.3244    0.0000 N   0  0  0  0  0  0  0  0  0  0  0  0
   15.3844    3.3244    0.0000 N   0  0  0  0  0  0  0  0  0  0  0  0
    3.4030   -4.8244    0.0000 N   0  0  0  0  0  0  0  0  0  0  0  0
   16.2505    4.8244    0.0000 N   0  0  0  0  0  0  0  0  0  0  0  0
    2.5369   -3.3244    0.0000 N   0  0  0  0  0  0  0  0  0  0  0  0
   17.1165    3.3244    0.0000 N   0  0  0  0  0  0  0  0  0  0  0  0
    7.3452   -1.2618    0.0000 C   0  0  3  0  0  0  0  0  0  0  0  0
    6.3947   -0.9511    0.0000 C   0  0  3  0  0  0  0  0  0  0  0  0
    6.3919   -2.5692    0.0000 C   0  0  3  0  0  0  0  0  0  0  0  0
    5.8055   -1.7591    0.0000 C   0  0  0  0  0  0  0  0  0  0  0  0
   12.3082    1.2618    0.0000 C   0  0  3  0  0  0  0  0  0  0  0  0
   12.3099    2.2618    0.0000 C   0  0  0  0  0  0  0  0  0  0  0  0
   13.2615    2.5692    0.0000 C   0  0  3  0  0  0  0  0  0  0  0  0
   13.2587    0.9511    0.0000 C   0  0  3  0  0  0  0  0  0  0  0  0
    8.1552   -0.6754    0.0000 C   0  0  0  0  0  0  0  0  0  0  0  0
   13.5661   -0.0004    0.0000 C   0  0  0  0  0  0  0  0  0  0  0  0
   11.4982    0.6754    0.0000 C   0  0  0  0  0  0  0  0  0  0  0  0
    5.1350   -3.8244    0.0000 C   0  0  0  0  0  0  0  0  0  0  0  0
   14.5184    3.8244    0.0000 C   0  0  0  0  0  0  0  0  0  0  0  0
    6.6648   -4.3244    0.0000 C   0  0  0  0  0  0  0  0  0  0  0  0
   12.9886    4.3244    0.0000 C   0  0  0  0  0  0  0  0  0  0  0  0
    5.1350   -4.8244    0.0000 C   0  0  0  0  0  0  0  0  0  0  0  0
   14.5184    4.8244    0.0000 C   0  0  0  0  0  0  0  0  0  0  0  0
    4.2690   -5.3244    0.0000 C   0  0  0  0  0  0  0  0  0  0  0  0
   15.3844    5.3244    0.0000 C   0  0  0  0  0  0  0  0  0  0  0  0
    3.4030   -3.8244    0.0000 C   0  0  0  0  0  0  0  0  0  0  0  0
   16.2505    3.8244    0.0000 C   0  0  0  0  0  0  0  0  0  0  0  0
    7.8972   -1.5442    0.0000 H   0  0  0  0  0  0  0  0  0  0  0  0
    5.7825   -0.8531    0.0000 H   0  0  0  0  0  0  0  0  0  0  0  0
    5.7794   -2.6651    0.0000 H   0  0  0  0  0  0  0  0  0  0  0  0
    5.3455   -1.3435    0.0000 H   0  0  0  0  0  0  0  0  0  0  0  0
    5.3440   -2.1732    0.0000 H   0  0  0  0  0  0  0  0  0  0  0  0
   11.7563    1.5442    0.0000 H   0  0  0  0  0  0  0  0  0  0  0  0
   12.1821    2.8685    0.0000 H   0  0  0  0  0  0  0  0  0  0  0  0
   11.6932    2.1981    0.0000 H   0  0  0  0  0  0  0  0  0  0  0  0
   12.8239    3.0083    0.0000 H   0  0  0  0  0  0  0  0  0  0  0  0
   13.8709    0.8531    0.0000 H   0  0  0  0  0  0  0  0  0  0  0  0
    8.5028   -0.1620    0.0000 H   0  0  0  0  0  0  0  0  0  0  0  0
    7.7100   -0.2440    0.0000 H   0  0  0  0  0  0  0  0  0  0  0  0
   12.9520   -0.0857    0.0000 H   0  0  0  0  0  0  0  0  0  0  0  0
   13.5434   -0.6200    0.0000 H   0  0  0  0  0  0  0  0  0  0  0  0
    9.1318   -1.7004    0.0000 H   0  0  0  0  0  0  0  0  0  0  0  0
    6.5030    0.4605    0.0000 H   0  0  0  0  0  0  0  0  0  0  0  0
    7.2848   -4.3244    0.0000 H   0  0  0  0  0  0  0  0  0  0  0  0
   12.3686    4.3244    0.0000 H   0  0  0  0  0  0  0  0  0  0  0  0
   14.7345   -0.8000    0.0000 H   0  0  0  0  0  0  0  0  0  0  0  0
    2.8660   -5.1344    0.0000 H   0  0  0  0  0  0  0  0  0  0  0  0
   16.7874    5.1344    0.0000 H   0  0  0  0  0  0  0  0  0  0  0  0
    2.0000   -3.6344    0.0000 H   0  0  0  0  0  0  0  0  0  0  0  0
    2.5369   -2.7044    0.0000 H   0  0  0  0  0  0  0  0  0  0  0  0
   17.6534    3.6344    0.0000 H   0  0  0  0  0  0  0  0  0  0  0  0
   17.1165    2.7044    0.0000 H   0  0  0  0  0  0  0  0  0  0  0  0
  1  6  2  0  0  0  0
  1  7  2  0  0  0  0
  1 12  1  0  0  0  0
  1 13  1  0  0  0  0
  2 22  1  0  0  0  0
  2 24  1  0  0  0  0
  3 28  1  0  0  0  0
  3 29  1  0  0  0  0
  4 23  1  0  0  0  0
  4 58  1  0  0  0  0
  5 31  1  0  0  0  0
  5 61  1  0  0  0  0
  8 39  2  0  0  0  0
  9 40  2  0  0  0  0
 10 24  1  0  0  0  0
 10 33  1  0  0  0  0
 10 35  1  0  0  0  0
 11 28  1  0  0  0  0
 11 34  1  0  0  0  0
 11 36  1  0  0  0  0
 12 30  1  0  0  0  0
 12 57  1  0  0  0  0
 13 32  3  0  0  0  0
 14 35  2  0  0  0  0
 14 37  1  0  0  0  0
 15 36  2  0  0  0  0
 15 38  1  0  0  0  0
 16 33  1  0  0  0  0
 16 41  2  0  0  0  0
 17 34  1  0  0  0  0
 17 42  2  0  0  0  0
 18 39  1  0  0  0  0
 18 41  1  0  0  0  0
 18 62  1  0  0  0  0
 19 40  1  0  0  0  0
 19 42  1  0  0  0  0
 19 63  1  0  0  0  0
 20 41  1  0  0  0  0
 20 64  1  0  0  0  0
 20 65  1  0  0  0  0
 21 42  1  0  0  0  0
 21 66  1  0  0  0  0
 21 67  1  0  0  0  0
 22 23  1  0  0  0  0
 22 30  1  0  0  0  0
 22 43  1  0  0  0  0
 23 25  1  0  0  0  0
 23 44  1  0  0  0  0
 24 25  1  0  0  0  0
 24 45  1  0  0  0  0
 25 46  1  0  0  0  0
 25 47  1  0  0  0  0
 26 27  1  0  0  0  0
 26 29  1  0  0  0  0
 26 32  1  0  0  0  0
 26 48  1  0  0  0  0
 27 28  1  0  0  0  0
 27 49  1  0  0  0  0
 27 50  1  0  0  0  0
 28 51  1  0  0  0  0
 29 31  1  0  0  0  0
 29 52  1  0  0  0  0
 30 53  1  0  0  0  0
 30 54  1  0  0  0  0
 31 55  1  0  0  0  0
 31 56  1  0  0  0  0
 33 37  2  0  0  0  0
 34 38  2  0  0  0  0
 35 59  1  0  0  0  0
 36 60  1  0  0  0  0
 37 39  1  0  0  0  0
 38 40  1  0  0  0  0
M  CHG  1  13   1
M  END
> <PUBCHEM_COMPOUND_CID>
137068443

> <PUBCHEM_COMPOUND_CANONICALIZED>
1

> <PUBCHEM_CACTVS_COMPLEXITY>
1360

> <PUBCHEM_CACTVS_HBOND_ACCEPTOR>
13

> <PUBCHEM_CACTVS_HBOND_DONOR>
7

> <PUBCHEM_CACTVS_ROTATABLE_BOND>
6

> <PUBCHEM_CACTVS_SUBSKEYS>
AAADceB7/ABAAAAAAAAAAAAAAAAAAWLEiQAgQAAAAAAAAEAB4AAAHgAQSAAADRzhlgYFsBfMFgC4BQdxdDCAgC0XEKABUIGoVECD2ApAyCAfQIgPEQLDAGiwMAIKAAAAAAAAAAAAAAAAAAAAAAAAAAAAAA==

> <PUBCHEM_IUPAC_OPENEYE_NAME>
5-(2-amino-6-oxo-1H-purin-9-yl)-N-[[5-(2-amino-6-oxo-1H-purin-9-yl)-3-hydroxy-tetrahydrofuran-2-yl]methylsulfamoyl]-2-(hydroxymethyl)tetrahydrofuran-3-carbonitrilium

> <PUBCHEM_IUPAC_CAS_NAME>
5-(2-amino-6-oxo-1H-purin-9-yl)-N-[[5-(2-amino-6-oxo-1H-purin-9-yl)-3-hydroxy-2-oxolanyl]methylsulfamoyl]-2-(hydroxymethyl)-3-oxolanecarbonitrilium

> <PUBCHEM_IUPAC_NAME_MARKUP>
5-(2-amino-6-oxo-1<I>H</I>-purin-9-yl)-<I>N</I>-[[5-(2-amino-6-oxo-1<I>H</I>-purin-9-yl)-3-hydroxyoxolan-2-yl]methylsulfamoyl]-2-(hydroxymethyl)oxolane-3-carbonitrilium

> <PUBCHEM_IUPAC_NAME>
5-(2-amino-6-oxo-1H-purin-9-yl)-N-[[5-(2-amino-6-oxo-1H-purin-9-yl)-3-hydroxyoxolan-2-yl]methylsulfamoyl]-2-(hydroxymethyl)oxolane-3-carbonitrilium

> <PUBCHEM_IUPAC_SYSTEMATIC_NAME>
5-(2-azanyl-6-oxidanylidene-1H-purin-9-yl)-N-[[5-(2-azanyl-6-oxidanylidene-1H-purin-9-yl)-3-oxidanyl-oxolan-2-yl]methylsulfamoyl]-2-(hydroxymethyl)oxolane-3-carbonitrilium

> <PUBCHEM_IUPAC_TRADITIONAL_NAME>
5-(2-amino-6-keto-1H-purin-9-yl)-N-[[5-(2-amino-6-keto-1H-purin-9-yl)-3-hydroxy-tetrahydrofuran-2-yl]methylsulfamoyl]-2-methylol-tetrahydrofuran-3-carbonitrilium

> <PUBCHEM_IUPAC_INCHI>
InChI=1S/C21H24N12O8S/c22-20-28-16-14(18(36)30-20)24-6-32(16)12-1-8(11(5-34)41-12)3-26-42(38,39)27-4-10-9(35)2-13(40-10)33-7-25-15-17(33)29-21(23)31-19(15)37/h6-13,27,34-35H,1-2,4-5H2,(H5-,22,23,28,29,30,31,36,37)/p+1

> <PUBCHEM_IUPAC_INCHIKEY>
GFSVUKJUYNQSHM-UHFFFAOYSA-O

> <PUBCHEM_XLOGP3_AA>
-4

> <PUBCHEM_EXACT_MASS>
605.16390198

> <PUBCHEM_MOLECULAR_FORMULA>
C21H25N12O8S+

> <PUBCHEM_MOLECULAR_WEIGHT>
605.6

> <PUBCHEM_OPENEYE_CAN_SMILES>
C1C(C(OC1N2C=NC3=C2N=C(NC3=O)N)CO)C#[N+]S(=O)(=O)NCC4C(CC(O4)N5C=NC6=C5N=C(NC6=O)N)O

> <PUBCHEM_OPENEYE_ISO_SMILES>
C1C(C(OC1N2C=NC3=C2N=C(NC3=O)N)CO)C#[N+]S(=O)(=O)NCC4C(CC(O4)N5C=NC6=C5N=C(NC6=O)N)O

> <PUBCHEM_CACTVS_TPSA>
288

> <PUBCHEM_MONOISOTOPIC_WEIGHT>
605.16390198

> <PUBCHEM_TOTAL_CHARGE>
1

> <PUBCHEM_HEAVY_ATOM_COUNT>
42

> <PUBCHEM_ATOM_DEF_STEREO_COUNT>
0

> <PUBCHEM_ATOM_UDEF_STEREO_COUNT>
6

> <PUBCHEM_BOND_DEF_STEREO_COUNT>
0

> <PUBCHEM_BOND_UDEF_STEREO_COUNT>
0

> <PUBCHEM_ISOTOPIC_ATOM_COUNT>
0

> <PUBCHEM_COMPONENT_COUNT>
1

> <PUBCHEM_CACTVS_TAUTO_COUNT>
-1

> <PUBCHEM_COORDINATE_TYPE>
1
5
255

> <PUBCHEM_BONDANNOTATIONS>
24  10  3
10  33  8
10  35  8
28  11  3
11  34  8
11  36  8
14  35  8
14  37  8
15  36  8
15  38  8
16  33  8
16  41  8
17  34  8
17  42  8
18  39  8
18  41  8
19  40  8
19  42  8
22  30  3
26  32  3
29  31  3
33  37  8
34  38  8
37  39  8
38  40  8
23  4  3

$$$$
