 
  -OEChem-10192104022D

 55 58  0     0  0  0  0  0  0999 V2000
    4.5836   -1.1758    0.0000 O   0  0  0  0  0  0  0  0  0  0  0  0
    7.1587    3.2845    0.0000 O   0  0  0  0  0  0  0  0  0  0  0  0
    6.0010    2.9793    0.0000 O   0  0  0  0  0  0  0  0  0  0  0  0
    2.5369    2.9793    0.0000 O   0  0  0  0  0  0  0  0  0  0  0  0
    6.0010    0.9793    0.0000 C   0  0  0  0  0  0  0  0  0  0  0  0
    5.8274   -0.0055    0.0000 C   0  0  0  0  0  0  0  0  0  0  0  0
    6.7671    1.6221    0.0000 C   0  0  0  0  0  0  0  0  0  0  0  0
    6.3274   -0.8715    0.0000 C   0  0  0  0  0  0  0  0  0  0  0  0
    7.7671    1.6221    0.0000 C   0  0  0  0  0  0  0  0  0  0  0  0
    7.2671   -1.2135    0.0000 C   0  0  0  0  0  0  0  0  0  0  0  0
    8.5331    0.9793    0.0000 C   0  0  0  0  0  0  0  0  0  0  0  0
    8.2068   -0.8715    0.0000 C   0  0  0  0  0  0  0  0  0  0  0  0
    8.7068   -0.0055    0.0000 C   0  0  0  0  0  0  0  0  0  0  0  0
    5.1350    1.4793    0.0000 C   0  0  0  0  0  0  0  0  0  0  0  0
    5.5192   -1.5287    0.0000 C   0  0  0  0  0  0  0  0  0  0  0  0
    7.9321    2.6506    0.0000 C   0  0  0  0  0  0  0  0  0  0  0  0
    7.4638   -2.2364    0.0000 C   0  0  0  0  0  0  0  0  0  0  0  0
    9.5173    1.3204    0.0000 C   0  0  0  0  0  0  0  0  0  0  0  0
    5.1350    2.4793    0.0000 C   0  0  0  0  0  0  0  0  0  0  0  0
    4.2690    0.9793    0.0000 C   0  0  0  0  0  0  0  0  0  0  0  0
    6.6710   -2.9121    0.0000 C   0  0  0  0  0  0  0  0  0  0  0  0
    9.7061    2.3448    0.0000 C   0  0  0  0  0  0  0  0  0  0  0  0
    5.6922   -2.5559    0.0000 C   0  0  0  0  0  0  0  0  0  0  0  0
    8.9082    3.0144    0.0000 C   0  0  0  0  0  0  0  0  0  0  0  0
    4.2690    2.9793    0.0000 C   0  0  0  0  0  0  0  0  0  0  0  0
    3.4030    1.4793    0.0000 C   0  0  0  0  0  0  0  0  0  0  0  0
    6.8484   -3.8962    0.0000 C   0  0  0  0  0  0  0  0  0  0  0  0
   10.6471    2.6832    0.0000 C   0  0  0  0  0  0  0  0  0  0  0  0
    3.4030    2.4793    0.0000 C   0  0  0  0  0  0  0  0  0  0  0  0
    5.4391    0.7173    0.0000 H   0  0  0  0  0  0  0  0  0  0  0  0
    5.2733    0.2728    0.0000 H   0  0  0  0  0  0  0  0  0  0  0  0
    5.4019   -0.4565    0.0000 H   0  0  0  0  0  0  0  0  0  0  0  0
    6.9449    2.2160    0.0000 H   0  0  0  0  0  0  0  0  0  0  0  0
    6.2491    1.9628    0.0000 H   0  0  0  0  0  0  0  0  0  0  0  0
    8.2428   -1.4905    0.0000 H   0  0  0  0  0  0  0  0  0  0  0  0
    8.8101   -1.0145    0.0000 H   0  0  0  0  0  0  0  0  0  0  0  0
    9.1323   -0.4565    0.0000 H   0  0  0  0  0  0  0  0  0  0  0  0
    9.2608    0.2728    0.0000 H   0  0  0  0  0  0  0  0  0  0  0  0
    8.0488   -2.4417    0.0000 H   0  0  0  0  0  0  0  0  0  0  0  0
    9.9876    0.9164    0.0000 H   0  0  0  0  0  0  0  0  0  0  0  0
    4.2690    0.3593    0.0000 H   0  0  0  0  0  0  0  0  0  0  0  0
    5.2157   -2.9526    0.0000 H   0  0  0  0  0  0  0  0  0  0  0  0
    9.0135    3.6254    0.0000 H   0  0  0  0  0  0  0  0  0  0  0  0
    4.2690    3.5993    0.0000 H   0  0  0  0  0  0  0  0  0  0  0  0
    2.8660    1.1693    0.0000 H   0  0  0  0  0  0  0  0  0  0  0  0
    6.2383   -4.0063    0.0000 H   0  0  0  0  0  0  0  0  0  0  0  0
    6.9585   -4.5064    0.0000 H   0  0  0  0  0  0  0  0  0  0  0  0
    7.4586   -3.7862    0.0000 H   0  0  0  0  0  0  0  0  0  0  0  0
   10.8569    2.0998    0.0000 H   0  0  0  0  0  0  0  0  0  0  0  0
   11.2305    2.8930    0.0000 H   0  0  0  0  0  0  0  0  0  0  0  0
   10.4373    3.2666    0.0000 H   0  0  0  0  0  0  0  0  0  0  0  0
    4.1040   -1.5688    0.0000 H   0  0  0  0  0  0  0  0  0  0  0  0
    7.2593    3.8962    0.0000 H   0  0  0  0  0  0  0  0  0  0  0  0
    6.0010    3.5993    0.0000 H   0  0  0  0  0  0  0  0  0  0  0  0
    2.0000    2.6693    0.0000 H   0  0  0  0  0  0  0  0  0  0  0  0
  1 15  1  0  0  0  0
  1 52  1  0  0  0  0
  2 16  1  0  0  0  0
  2 53  1  0  0  0  0
  3 19  1  0  0  0  0
  3 54  1  0  0  0  0
  4 29  1  0  0  0  0
  4 55  1  0  0  0  0
  5  6  1  0  0  0  0
  5  7  1  0  0  0  0
  5 14  1  0  0  0  0
  5 30  1  0  0  0  0
  6  8  1  0  0  0  0
  6 31  1  0  0  0  0
  6 32  1  0  0  0  0
  7  9  1  0  0  0  0
  7 33  1  0  0  0  0
  7 34  1  0  0  0  0
  8 10  2  0  0  0  0
  8 15  1  0  0  0  0
  9 11  2  0  0  0  0
  9 16  1  0  0  0  0
 10 12  1  0  0  0  0
 10 17  1  0  0  0  0
 11 13  1  0  0  0  0
 11 18  1  0  0  0  0
 12 13  1  0  0  0  0
 12 35  1  0  0  0  0
 12 36  1  0  0  0  0
 13 37  1  0  0  0  0
 13 38  1  0  0  0  0
 14 19  2  0  0  0  0
 14 20  1  0  0  0  0
 15 23  2  0  0  0  0
 16 24  2  0  0  0  0
 17 21  2  0  0  0  0
 17 39  1  0  0  0  0
 18 22  2  0  0  0  0
 18 40  1  0  0  0  0
 19 25  1  0  0  0  0
 20 26  2  0  0  0  0
 20 41  1  0  0  0  0
 21 23  1  0  0  0  0
 21 27  1  0  0  0  0
 22 24  1  0  0  0  0
 22 28  1  0  0  0  0
 23 42  1  0  0  0  0
 24 43  1  0  0  0  0
 25 29  2  0  0  0  0
 25 44  1  0  0  0  0
 26 29  1  0  0  0  0
 26 45  1  0  0  0  0
 27 46  1  0  0  0  0
 27 47  1  0  0  0  0
 27 48  1  0  0  0  0
 28 49  1  0  0  0  0
 28 50  1  0  0  0  0
 28 51  1  0  0  0  0
M  END
> <PUBCHEM_COMPOUND_CID>
129160243

> <PUBCHEM_COMPOUND_CANONICALIZED>
1

> <PUBCHEM_CACTVS_COMPLEXITY>
505

> <PUBCHEM_CACTVS_HBOND_ACCEPTOR>
4

> <PUBCHEM_CACTVS_HBOND_DONOR>
4

> <PUBCHEM_CACTVS_ROTATABLE_BOND>
1

> <PUBCHEM_CACTVS_SUBSKEYS>
AAADceB4OAAAAAAAAAAAAAAAAAAAAAAAAAAwYMAAAAAAAGABUAAAGgAACAAADQSAmAAyBoAAAgCAAiBCAAACAAAgIAAIiAAGCIgIJyKCERKAcAAlwBUImAeA4PQO4AADCAAYAADAAAYQADAAAAAAAAAAAA==

> <PUBCHEM_IUPAC_OPENEYE_NAME>
11-(2,4-dihydroxyphenyl)-6,16-dimethyl-tricyclo[11.4.0.04,9]heptadeca-1(13),4(9),5,7,14,16-hexaene-8,14-diol

> <PUBCHEM_IUPAC_CAS_NAME>
11-(2,4-dihydroxyphenyl)-6,16-dimethyltricyclo[11.4.0.04,9]heptadeca-1(13),4(9),5,7,14,16-hexaene-8,14-diol

> <PUBCHEM_IUPAC_NAME_MARKUP>
11-(2,4-dihydroxyphenyl)-6,16-dimethyltricyclo[11.4.0.0<SUP>4,9</SUP>]heptadeca-1(13),4(9),5,7,14,16-hexaene-8,14-diol

> <PUBCHEM_IUPAC_NAME>
11-(2,4-dihydroxyphenyl)-6,16-dimethyltricyclo[11.4.0.04,9]heptadeca-1(13),4(9),5,7,14,16-hexaene-8,14-diol

> <PUBCHEM_IUPAC_SYSTEMATIC_NAME>
11-[2,4-bis(oxidanyl)phenyl]-6,16-dimethyl-tricyclo[11.4.0.04,9]heptadeca-1(13),4(9),5,7,14,16-hexaene-8,14-diol

> <PUBCHEM_IUPAC_TRADITIONAL_NAME>
11-(2,4-dihydroxyphenyl)-6,16-dimethyl-tricyclo[11.4.0.04,9]heptadeca-1(13),4(9),5,7,14,16-hexaene-8,14-diol

> <PUBCHEM_IUPAC_INCHI>
InChI=1S/C25H26O4/c1-14-7-16-3-4-17-8-15(2)10-24(28)22(17)12-18(11-21(16)23(27)9-14)20-6-5-19(26)13-25(20)29/h5-10,13,18,26-29H,3-4,11-12H2,1-2H3

> <PUBCHEM_IUPAC_INCHIKEY>
YTUZLFQAUMKTAU-UHFFFAOYSA-N

> <PUBCHEM_XLOGP3_AA>
5.5

> <PUBCHEM_EXACT_MASS>
390.18310931

> <PUBCHEM_MOLECULAR_FORMULA>
C25H26O4

> <PUBCHEM_MOLECULAR_WEIGHT>
390.5

> <PUBCHEM_OPENEYE_CAN_SMILES>
CC1=CC2=C(CC(CC3=C(CC2)C=C(C=C3O)C)C4=C(C=C(C=C4)O)O)C(=C1)O

> <PUBCHEM_OPENEYE_ISO_SMILES>
CC1=CC2=C(CC(CC3=C(CC2)C=C(C=C3O)C)C4=C(C=C(C=C4)O)O)C(=C1)O

> <PUBCHEM_CACTVS_TPSA>
80.9

> <PUBCHEM_MONOISOTOPIC_WEIGHT>
390.18310931

> <PUBCHEM_TOTAL_CHARGE>
0

> <PUBCHEM_HEAVY_ATOM_COUNT>
29

> <PUBCHEM_ATOM_DEF_STEREO_COUNT>
0

> <PUBCHEM_ATOM_UDEF_STEREO_COUNT>
0

> <PUBCHEM_BOND_DEF_STEREO_COUNT>
0

> <PUBCHEM_BOND_UDEF_STEREO_COUNT>
0

> <PUBCHEM_ISOTOPIC_ATOM_COUNT>
0

> <PUBCHEM_COMPONENT_COUNT>
1

> <PUBCHEM_CACTVS_TAUTO_COUNT>
-1

> <PUBCHEM_COORDINATE_TYPE>
1
5
255

> <PUBCHEM_BONDANNOTATIONS>
10  17  8
11  18  8
14  19  8
14  20  8
15  23  8
16  24  8
17  21  8
18  22  8
19  25  8
20  26  8
21  23  8
22  24  8
25  29  8
26  29  8
8  10  8
8  15  8
9  11  8
9  16  8

$$$$
