 
  -OEChem-10192104452D

 80 84  0     1  0  0  0  0  0999 V2000
    2.5357   -2.5913    0.0000 O   0  0  0  0  0  0  0  0  0  0  0  0
    4.3500   -4.3692    0.0000 O   0  0  0  0  0  0  0  0  0  0  0  0
   11.2187    3.5206    0.0000 O   0  0  0  0  0  0  0  0  0  0  0  0
    9.7088    4.3692    0.0000 O   0  0  0  0  0  0  0  0  0  0  0  0
    7.0628   -1.0390    0.0000 C   0  0  2  0  0  0  0  0  0  0  0  0
    6.1968   -0.5390    0.0000 C   0  0  1  0  0  0  0  0  0  0  0  0
    5.2868   -1.0458    0.0000 C   0  0  2  0  0  0  0  0  0  0  0  0
    7.9288   -0.5390    0.0000 C   0  0  1  0  0  0  0  0  0  0  0  0
    5.2787   -2.0874    0.0000 C   0  0  1  0  0  0  0  0  0  0  0  0
    7.0789   -2.0805    0.0000 C   0  0  0  0  0  0  0  0  0  0  0  0
    7.9288    0.4610    0.0000 C   0  0  0  0  0  0  0  0  0  0  0  0
    8.8228    0.9957    0.0000 C   0  0  1  0  0  0  0  0  0  0  0  0
    6.1808   -2.6083    0.0000 C   0  0  0  0  0  0  0  0  0  0  0  0
    9.7288    0.4818    0.0000 C   0  0  1  0  0  0  0  0  0  0  0  0
    8.8228   -1.0737    0.0000 C   0  0  0  0  0  0  0  0  0  0  0  0
    6.1968    0.4610    0.0000 C   0  0  0  0  0  0  0  0  0  0  0  0
    4.3433   -2.6372    0.0000 C   0  0  2  0  0  0  0  0  0  0  0  0
    4.3599   -0.4818    0.0000 C   0  0  0  0  0  0  0  0  0  0  0  0
    9.7288   -0.5598    0.0000 C   0  0  0  0  0  0  0  0  0  0  0  0
    7.7056   -1.8050    0.0000 C   0  0  0  0  0  0  0  0  0  0  0  0
    7.0628    0.9610    0.0000 C   0  0  0  0  0  0  0  0  0  0  0  0
    5.2945   -0.0459    0.0000 C   0  0  0  0  0  0  0  0  0  0  0  0
    8.2709   -1.4787    0.0000 C   0  0  0  0  0  0  0  0  0  0  0  0
    3.4037   -2.0947    0.0000 C   0  0  1  0  0  0  0  0  0  0  0  0
    3.4120   -1.0097    0.0000 C   0  0  0  0  0  0  0  0  0  0  0  0
    8.7977    2.0804    0.0000 C   0  0  0  0  0  0  0  0  0  0  0  0
   10.6726    1.0170    0.0000 C   0  0  0  0  0  0  0  0  0  0  0  0
    9.7288    2.6373    0.0000 C   0  0  2  0  0  0  0  0  0  0  0  0
   10.6726    2.1020    0.0000 C   0  0  0  0  0  0  0  0  0  0  0  0
   10.5987   -0.0115    0.0000 C   0  0  0  0  0  0  0  0  0  0  0  0
    4.8466   -3.5013    0.0000 C   0  0  0  0  0  0  0  0  0  0  0  0
    3.8467   -3.5051    0.0000 C   0  0  0  0  0  0  0  0  0  0  0  0
    9.2188    3.4975    0.0000 C   0  0  0  0  0  0  0  0  0  0  0  0
   10.2188    3.5090    0.0000 C   0  0  0  0  0  0  0  0  0  0  0  0
    6.9329   -0.1140    0.0000 H   0  0  0  0  0  0  0  0  0  0  0  0
    5.2820   -2.9374    0.0000 H   0  0  0  0  0  0  0  0  0  0  0  0
    7.2969   -2.6609    0.0000 H   0  0  0  0  0  0  0  0  0  0  0  0
    7.6880   -1.9650    0.0000 H   0  0  0  0  0  0  0  0  0  0  0  0
    9.5522    1.4320    0.0000 H   0  0  0  0  0  0  0  0  0  0  0  0
    5.7835   -3.0842    0.0000 H   0  0  0  0  0  0  0  0  0  0  0  0
    6.5818   -3.0812    0.0000 H   0  0  0  0  0  0  0  0  0  0  0  0
    8.4182   -1.5435    0.0000 H   0  0  0  0  0  0  0  0  0  0  0  0
    9.2164   -1.5527    0.0000 H   0  0  0  0  0  0  0  0  0  0  0  0
    5.9847    1.0436    0.0000 H   0  0  0  0  0  0  0  0  0  0  0  0
    5.5862    0.3533    0.0000 H   0  0  0  0  0  0  0  0  0  0  0  0
    4.7681   -0.0151    0.0000 H   0  0  0  0  0  0  0  0  0  0  0  0
    3.9700    0.0003    0.0000 H   0  0  0  0  0  0  0  0  0  0  0  0
    9.9379   -1.1435    0.0000 H   0  0  0  0  0  0  0  0  0  0  0  0
   10.3397   -0.4537    0.0000 H   0  0  0  0  0  0  0  0  0  0  0  0
    7.2306   -2.2036    0.0000 H   0  0  0  0  0  0  0  0  0  0  0  0
    8.1041   -2.2800    0.0000 H   0  0  0  0  0  0  0  0  0  0  0  0
    8.1805   -1.4065    0.0000 H   0  0  0  0  0  0  0  0  0  0  0  0
    7.0628    1.5810    0.0000 H   0  0  0  0  0  0  0  0  0  0  0  0
    5.9145   -0.0507    0.0000 H   0  0  0  0  0  0  0  0  0  0  0  0
    5.2993    0.5741    0.0000 H   0  0  0  0  0  0  0  0  0  0  0  0
    4.6745   -0.0411    0.0000 H   0  0  0  0  0  0  0  0  0  0  0  0
    7.6884   -1.6908    0.0000 H   0  0  0  0  0  0  0  0  0  0  0  0
    8.4830   -2.0612    0.0000 H   0  0  0  0  0  0  0  0  0  0  0  0
    8.8535   -1.2666    0.0000 H   0  0  0  0  0  0  0  0  0  0  0  0
    2.8686   -1.7816    0.0000 H   0  0  0  0  0  0  0  0  0  0  0  0
    3.2075   -0.4244    0.0000 H   0  0  0  0  0  0  0  0  0  0  0  0
    2.8004   -1.1111    0.0000 H   0  0  0  0  0  0  0  0  0  0  0  0
    8.5752    2.6591    0.0000 H   0  0  0  0  0  0  0  0  0  0  0  0
    8.1894    1.9602    0.0000 H   0  0  0  0  0  0  0  0  0  0  0  0
   10.8817    0.4334    0.0000 H   0  0  0  0  0  0  0  0  0  0  0  0
   11.2835    1.1231    0.0000 H   0  0  0  0  0  0  0  0  0  0  0  0
   11.2835    1.9960    0.0000 H   0  0  0  0  0  0  0  0  0  0  0  0
   10.8817    2.6857    0.0000 H   0  0  0  0  0  0  0  0  0  0  0  0
   10.2928   -0.5508    0.0000 H   0  0  0  0  0  0  0  0  0  0  0  0
   11.1380   -0.3174    0.0000 H   0  0  0  0  0  0  0  0  0  0  0  0
   10.9045    0.5278    0.0000 H   0  0  0  0  0  0  0  0  0  0  0  0
    4.3109   -3.8133    0.0000 H   0  0  0  0  0  0  0  0  0  0  0  0
    5.1587   -4.0370    0.0000 H   0  0  0  0  0  0  0  0  0  0  0  0
    5.3824   -3.1892    0.0000 H   0  0  0  0  0  0  0  0  0  0  0  0
    3.2267   -3.5075    0.0000 H   0  0  0  0  0  0  0  0  0  0  0  0
    9.7522    3.8136    0.0000 H   0  0  0  0  0  0  0  0  0  0  0  0
    8.9027    4.0308    0.0000 H   0  0  0  0  0  0  0  0  0  0  0  0
    8.6855    3.1813    0.0000 H   0  0  0  0  0  0  0  0  0  0  0  0
    2.0000   -2.2793    0.0000 H   0  0  0  0  0  0  0  0  0  0  0  0
   11.5225    4.0611    0.0000 H   0  0  0  0  0  0  0  0  0  0  0  0
 24  1  1  6  0  0  0
  1 79  1  0  0  0  0
  2 32  2  0  0  0  0
  3 34  1  0  0  0  0
  3 80  1  0  0  0  0
  4 34  2  0  0  0  0
  5  6  1  0  0  0  0
  5  8  1  0  0  0  0
  5 10  1  0  0  0  0
  5 20  1  1  0  0  0
  6  7  1  0  0  0  0
  6 16  1  0  0  0  0
  6 35  1  6  0  0  0
  7  9  1  0  0  0  0
  7 18  1  0  0  0  0
  7 22  1  1  0  0  0
  8 11  1  0  0  0  0
  8 15  1  0  0  0  0
  8 23  1  6  0  0  0
  9 13  1  0  0  0  0
  9 17  1  0  0  0  0
  9 36  1  6  0  0  0
 10 13  1  0  0  0  0
 10 37  1  0  0  0  0
 10 38  1  0  0  0  0
 11 12  1  0  0  0  0
 11 21  2  0  0  0  0
 12 14  1  0  0  0  0
 12 26  1  0  0  0  0
 12 39  1  1  0  0  0
 13 40  1  0  0  0  0
 13 41  1  0  0  0  0
 14 19  1  0  0  0  0
 14 27  1  0  0  0  0
 14 30  1  1  0  0  0
 15 19  1  0  0  0  0
 15 42  1  0  0  0  0
 15 43  1  0  0  0  0
 16 21  1  0  0  0  0
 16 44  1  0  0  0  0
 16 45  1  0  0  0  0
 17 24  1  0  0  0  0
 17 31  1  1  0  0  0
 17 32  1  0  0  0  0
 18 25  1  0  0  0  0
 18 46  1  0  0  0  0
 18 47  1  0  0  0  0
 19 48  1  0  0  0  0
 19 49  1  0  0  0  0
 20 50  1  0  0  0  0
 20 51  1  0  0  0  0
 20 52  1  0  0  0  0
 21 53  1  0  0  0  0
 22 54  1  0  0  0  0
 22 55  1  0  0  0  0
 22 56  1  0  0  0  0
 23 57  1  0  0  0  0
 23 58  1  0  0  0  0
 23 59  1  0  0  0  0
 24 25  1  0  0  0  0
 24 60  1  0  0  0  0
 25 61  1  0  0  0  0
 25 62  1  0  0  0  0
 26 28  1  0  0  0  0
 26 63  1  0  0  0  0
 26 64  1  0  0  0  0
 27 29  1  0  0  0  0
 27 65  1  0  0  0  0
 27 66  1  0  0  0  0
 28 29  1  0  0  0  0
 28 33  1  1  0  0  0
 28 34  1  0  0  0  0
 29 67  1  0  0  0  0
 29 68  1  0  0  0  0
 30 69  1  0  0  0  0
 30 70  1  0  0  0  0
 30 71  1  0  0  0  0
 31 72  1  0  0  0  0
 31 73  1  0  0  0  0
 31 74  1  0  0  0  0
 32 75  1  0  0  0  0
 33 76  1  0  0  0  0
 33 77  1  0  0  0  0
 33 78  1  0  0  0  0
M  END
> <PUBCHEM_COMPOUND_CID>
102482974

> <PUBCHEM_COMPOUND_CANONICALIZED>
1

> <PUBCHEM_CACTVS_COMPLEXITY>
940

> <PUBCHEM_CACTVS_HBOND_ACCEPTOR>
4

> <PUBCHEM_CACTVS_HBOND_DONOR>
2

> <PUBCHEM_CACTVS_ROTATABLE_BOND>
2

> <PUBCHEM_CACTVS_SUBSKEYS>
AAADcfB4OAAAAAAAAAAAAAAAAAAAAAAAAAAwYMGCAAAAAADAAAAAGgAACAAADxSggAICCAAAAgCIAijSiAAAAAAgAAAACAEAAAgAEBYAAQAAQAAEoAAIAAOIyPCPgAAAAAAAAADAAAYAADAAAAAAAAAAAA==

> <PUBCHEM_IUPAC_OPENEYE_NAME>
(2R,4aS,6aR,6aS,6bR,8aR,9S,10R,12aR,14bR)-9-formyl-10-hydroxy-2,4a,6a,6b,9,12a-hexamethyl-1,3,4,5,6,6a,7,8,8a,10,11,12,13,14b-tetradecahydropicene-2-carboxylic acid

> <PUBCHEM_IUPAC_CAS_NAME>
(2R,4aS,6aR,6aS,6bR,8aR,9S,10R,12aR,14bR)-9-formyl-10-hydroxy-2,4a,6a,6b,9,12a-hexamethyl-1,3,4,5,6,6a,7,8,8a,10,11,12,13,14b-tetradecahydropicene-2-carboxylic acid

> <PUBCHEM_IUPAC_NAME_MARKUP>
(2<I>R</I>,4<I>a</I><I>S</I>,6<I>a</I><I>R</I>,6<I>a</I><I>S</I>,6<I>b</I><I>R</I>,8<I>a</I><I>R</I>,9<I>S</I>,10<I>R</I>,12<I>a</I><I>R</I>,14<I>b</I><I>R</I>)-9-formyl-10-hydroxy-2,4<I>a</I>,6<I>a</I>,6<I>b</I>,9,12<I>a</I>-hexamethyl-1,3,4,5,6,6<I>a</I>,7,8,8<I>a</I>,10,11,12,13,14<I>b</I>-tetradecahydropicene-2-carboxylic acid

> <PUBCHEM_IUPAC_NAME>
(2R,4aS,6aR,6aS,6bR,8aR,9S,10R,12aR,14bR)-9-formyl-10-hydroxy-2,4a,6a,6b,9,12a-hexamethyl-1,3,4,5,6,6a,7,8,8a,10,11,12,13,14b-tetradecahydropicene-2-carboxylic acid

> <PUBCHEM_IUPAC_SYSTEMATIC_NAME>
(2R,4aS,6aR,6aS,6bR,8aR,9S,10R,12aR,14bR)-9-methanoyl-2,4a,6a,6b,9,12a-hexamethyl-10-oxidanyl-1,3,4,5,6,6a,7,8,8a,10,11,12,13,14b-tetradecahydropicene-2-carboxylic acid

> <PUBCHEM_IUPAC_TRADITIONAL_NAME>
(2R,4aS,6aR,6aS,6bR,8aR,9S,10R,12aR,14bR)-9-formyl-10-hydroxy-2,4a,6a,6b,9,12a-hexamethyl-1,3,4,5,6,6a,7,8,8a,10,11,12,13,14b-tetradecahydropicene-2-carboxylic acid

> <PUBCHEM_IUPAC_INCHI>
InChI=1S/C30H46O4/c1-25-13-14-26(2,24(33)34)17-20(25)19-7-8-22-27(3)11-10-23(32)28(4,18-31)21(27)9-12-30(22,6)29(19,5)16-15-25/h7,18,20-23,32H,8-17H2,1-6H3,(H,33,34)/t20-,21+,22+,23+,25+,26+,27-,28-,29+,30+/m0/s1

> <PUBCHEM_IUPAC_INCHIKEY>
RYOOYFRGWVCJEC-TUMGWZQQSA-N

> <PUBCHEM_XLOGP3_AA>
6.7

> <PUBCHEM_EXACT_MASS>
470.33960994

> <PUBCHEM_MOLECULAR_FORMULA>
C30H46O4

> <PUBCHEM_MOLECULAR_WEIGHT>
470.7

> <PUBCHEM_OPENEYE_CAN_SMILES>
CC12CCC(CC1C3=CCC4C5(CCC(C(C5CCC4(C3(CC2)C)C)(C)C=O)O)C)(C)C(=O)O

> <PUBCHEM_OPENEYE_ISO_SMILES>
C[C@]12CC[C@@](C[C@H]1C3=CC[C@@H]4[C@]5(CC[C@H]([C@@]([C@@H]5CC[C@]4([C@@]3(CC2)C)C)(C)C=O)O)C)(C)C(=O)O

> <PUBCHEM_CACTVS_TPSA>
74.6

> <PUBCHEM_MONOISOTOPIC_WEIGHT>
470.33960994

> <PUBCHEM_TOTAL_CHARGE>
0

> <PUBCHEM_HEAVY_ATOM_COUNT>
34

> <PUBCHEM_ATOM_DEF_STEREO_COUNT>
10

> <PUBCHEM_ATOM_UDEF_STEREO_COUNT>
0

> <PUBCHEM_BOND_DEF_STEREO_COUNT>
0

> <PUBCHEM_BOND_UDEF_STEREO_COUNT>
0

> <PUBCHEM_ISOTOPIC_ATOM_COUNT>
0

> <PUBCHEM_COMPONENT_COUNT>
1

> <PUBCHEM_CACTVS_TAUTO_COUNT>
-1

> <PUBCHEM_COORDINATE_TYPE>
1
5
255

> <PUBCHEM_BONDANNOTATIONS>
24  1  6
12  39  5
14  30  5
17  31  5
28  33  5
5  20  5
6  35  6
7  22  5
8  23  6
9  36  6

$$$$
