 
  -OEChem-10192103382D

 83 86  0     1  0  0  0  0  0999 V2000
   10.2629    0.5390    0.0000 O   0  0  0  0  0  0  0  0  0  0  0  0
    6.0010    0.0390    0.0000 O   0  0  0  0  0  0  0  0  0  0  0  0
    6.8671   -1.4610    0.0000 O   0  0  0  0  0  0  0  0  0  0  0  0
    5.1350   -1.4610    0.0000 O   0  0  0  0  0  0  0  0  0  0  0  0
    6.0010    3.0390    0.0000 O   0  0  0  0  0  0  0  0  0  0  0  0
   13.2629    0.5390    0.0000 O   0  0  0  0  0  0  0  0  0  0  0  0
    6.8671   -3.4610    0.0000 O   0  0  0  0  0  0  0  0  0  0  0  0
    7.7331    3.0390    0.0000 O   0  0  0  0  0  0  0  0  0  0  0  0
   10.2629    2.2710    0.0000 O   0  0  0  0  0  0  0  0  0  0  0  0
    5.1350   -4.4610    0.0000 O   0  0  0  0  0  0  0  0  0  0  0  0
    3.4030   -3.4610    0.0000 O   0  0  0  0  0  0  0  0  0  0  0  0
   11.7629   -0.3271    0.0000 O   0  0  0  0  0  0  0  0  0  0  0  0
   14.7629    1.4050    0.0000 O   0  0  0  0  0  0  0  0  0  0  0  0
    2.5369   -1.9610    0.0000 O   0  0  0  0  0  0  0  0  0  0  0  0
   11.3969    4.7710    0.0000 O   0  0  0  0  0  0  0  0  0  0  0  0
    7.7331    0.0390    0.0000 C   0  0  2  0  0  0  0  0  0  0  0  0
    8.6793   -0.2658    0.0000 C   0  0  2  0  0  0  0  0  0  0  0  0
    7.7331    1.0390    0.0000 C   0  0  2  0  0  0  0  0  0  0  0  0
    9.2629    0.5390    0.0000 C   0  0  2  0  0  0  0  0  0  0  0  0
    8.6793    1.3437    0.0000 C   0  0  0  0  0  0  0  0  0  0  0  0
    6.8671   -0.4610    0.0000 C   0  0  1  0  0  0  0  0  0  0  0  0
    6.8671    1.5390    0.0000 C   0  0  0  0  0  0  0  0  0  0  0  0
    8.9900   -1.2163    0.0000 C   0  0  0  0  0  0  0  0  0  0  0  0
    6.0010    1.0390    0.0000 C   0  0  0  0  0  0  0  0  0  0  0  0
    6.0010   -1.9610    0.0000 C   0  0  2  0  0  0  0  0  0  0  0  0
    6.8671    2.5390    0.0000 C   0  0  0  0  0  0  0  0  0  0  0  0
   10.7629    1.4050    0.0000 C   0  0  0  0  0  0  0  0  0  0  0  0
   11.7629    1.4050    0.0000 C   0  0  1  0  0  0  0  0  0  0  0  0
    6.0010   -2.9610    0.0000 C   0  0  1  0  0  0  0  0  0  0  0  0
   12.2629    2.2710    0.0000 C   0  0  1  0  0  0  0  0  0  0  0  0
    5.1350   -3.4610    0.0000 C   0  0  2  0  0  0  0  0  0  0  0  0
    4.2690   -1.9610    0.0000 C   0  0  1  0  0  0  0  0  0  0  0  0
    4.2690   -2.9610    0.0000 C   0  0  1  0  0  0  0  0  0  0  0  0
   12.2629    0.5390    0.0000 C   0  0  2  0  0  0  0  0  0  0  0  0
   13.2629    2.2710    0.0000 C   0  0  0  0  0  0  0  0  0  0  0  0
   13.7629    1.4050    0.0000 C   0  0  2  0  0  0  0  0  0  0  0  0
   12.2629    3.2710    0.0000 C   0  0  0  0  0  0  0  0  0  0  0  0
    3.4030   -1.4610    0.0000 C   0  0  0  0  0  0  0  0  0  0  0  0
    6.0010    4.0390    0.0000 C   0  0  0  0  0  0  0  0  0  0  0  0
   13.1289    3.7710    0.0000 C   0  0  0  0  0  0  0  0  0  0  0  0
   11.3969    3.7710    0.0000 C   0  0  0  0  0  0  0  0  0  0  0  0
   13.9950    3.2710    0.0000 C   0  0  0  0  0  0  0  0  0  0  0  0
   15.2629    2.2710    0.0000 C   0  0  0  0  0  0  0  0  0  0  0  0
    7.8230   -0.8063    0.0000 H   0  0  0  0  0  0  0  0  0  0  0  0
    8.2418   -0.7051    0.0000 H   0  0  0  0  0  0  0  0  0  0  0  0
    7.8230    1.8842    0.0000 H   0  0  0  0  0  0  0  0  0  0  0  0
    9.5446   -0.0133    0.0000 H   0  0  0  0  0  0  0  0  0  0  0  0
    9.2167    1.6529    0.0000 H   0  0  0  0  0  0  0  0  0  0  0  0
    8.4283    1.9106    0.0000 H   0  0  0  0  0  0  0  0  0  0  0  0
    7.4040   -0.7710    0.0000 H   0  0  0  0  0  0  0  0  0  0  0  0
    8.4006   -1.4089    0.0000 H   0  0  0  0  0  0  0  0  0  0  0  0
    9.1826   -1.8056    0.0000 H   0  0  0  0  0  0  0  0  0  0  0  0
    9.5793   -1.0237    0.0000 H   0  0  0  0  0  0  0  0  0  0  0  0
    5.4641    1.3490    0.0000 H   0  0  0  0  0  0  0  0  0  0  0  0
    6.0010   -1.3410    0.0000 H   0  0  0  0  0  0  0  0  0  0  0  0
   11.4529    1.9419    0.0000 H   0  0  0  0  0  0  0  0  0  0  0  0
    6.0010   -3.5810    0.0000 H   0  0  0  0  0  0  0  0  0  0  0  0
   11.6640    2.4315    0.0000 H   0  0  0  0  0  0  0  0  0  0  0  0
    4.5981   -3.7710    0.0000 H   0  0  0  0  0  0  0  0  0  0  0  0
    4.2690   -1.3410    0.0000 H   0  0  0  0  0  0  0  0  0  0  0  0
    4.2690   -3.5810    0.0000 H   0  0  0  0  0  0  0  0  0  0  0  0
   11.6429    0.5390    0.0000 H   0  0  0  0  0  0  0  0  0  0  0  0
   13.8455    2.4831    0.0000 H   0  0  0  0  0  0  0  0  0  0  0  0
   13.1553    2.8816    0.0000 H   0  0  0  0  0  0  0  0  0  0  0  0
   14.0729    1.9419    0.0000 H   0  0  0  0  0  0  0  0  0  0  0  0
    3.8015   -0.9861    0.0000 H   0  0  0  0  0  0  0  0  0  0  0  0
    3.0044   -0.9861    0.0000 H   0  0  0  0  0  0  0  0  0  0  0  0
    6.8671   -4.0810    0.0000 H   0  0  0  0  0  0  0  0  0  0  0  0
    4.5981   -4.7710    0.0000 H   0  0  0  0  0  0  0  0  0  0  0  0
    3.4030   -4.0810    0.0000 H   0  0  0  0  0  0  0  0  0  0  0  0
   12.0729   -0.8640    0.0000 H   0  0  0  0  0  0  0  0  0  0  0  0
    6.6210    4.0390    0.0000 H   0  0  0  0  0  0  0  0  0  0  0  0
    6.0010    4.6590    0.0000 H   0  0  0  0  0  0  0  0  0  0  0  0
    5.3810    4.0390    0.0000 H   0  0  0  0  0  0  0  0  0  0  0  0
   13.1289    4.3910    0.0000 H   0  0  0  0  0  0  0  0  0  0  0  0
   11.0869    3.2341    0.0000 H   0  0  0  0  0  0  0  0  0  0  0  0
    2.0000   -1.6510    0.0000 H   0  0  0  0  0  0  0  0  0  0  0  0
   13.6850    2.7341    0.0000 H   0  0  0  0  0  0  0  0  0  0  0  0
   14.5319    2.9610    0.0000 H   0  0  0  0  0  0  0  0  0  0  0  0
   14.3050    3.8080    0.0000 H   0  0  0  0  0  0  0  0  0  0  0  0
   15.7999    1.9610    0.0000 H   0  0  0  0  0  0  0  0  0  0  0  0
   15.5729    2.8080    0.0000 H   0  0  0  0  0  0  0  0  0  0  0  0
   14.7260    2.5810    0.0000 H   0  0  0  0  0  0  0  0  0  0  0  0
 19  1  1  6  0  0  0
  1 27  1  0  0  0  0
  2 21  1  0  0  0  0
  2 24  1  0  0  0  0
 21  3  1  6  0  0  0
 25  3  1  1  0  0  0
  4 25  1  0  0  0  0
  4 32  1  0  0  0  0
  5 26  1  0  0  0  0
  5 39  1  0  0  0  0
  6 34  1  0  0  0  0
  6 36  1  0  0  0  0
 29  7  1  6  0  0  0
  7 68  1  0  0  0  0
  8 26  2  0  0  0  0
  9 27  2  0  0  0  0
 31 10  1  1  0  0  0
 10 69  1  0  0  0  0
 33 11  1  6  0  0  0
 11 70  1  0  0  0  0
 34 12  1  6  0  0  0
 12 71  1  0  0  0  0
 36 13  1  1  0  0  0
 13 43  1  0  0  0  0
 14 38  1  0  0  0  0
 14 77  1  0  0  0  0
 15 41  2  0  0  0  0
 16 17  1  0  0  0  0
 16 18  1  0  0  0  0
 16 21  1  0  0  0  0
 16 44  1  6  0  0  0
 17 19  1  0  0  0  0
 17 23  1  6  0  0  0
 17 45  1  0  0  0  0
 18 20  1  0  0  0  0
 18 22  1  0  0  0  0
 18 46  1  6  0  0  0
 19 20  1  0  0  0  0
 19 47  1  0  0  0  0
 20 48  1  0  0  0  0
 20 49  1  0  0  0  0
 21 50  1  0  0  0  0
 22 24  2  0  0  0  0
 22 26  1  0  0  0  0
 23 51  1  0  0  0  0
 23 52  1  0  0  0  0
 23 53  1  0  0  0  0
 24 54  1  0  0  0  0
 25 29  1  0  0  0  0
 25 55  1  0  0  0  0
 28 27  1  1  0  0  0
 28 30  1  0  0  0  0
 28 34  1  0  0  0  0
 28 56  1  0  0  0  0
 29 31  1  0  0  0  0
 29 57  1  0  0  0  0
 30 35  1  0  0  0  0
 30 37  1  6  0  0  0
 30 58  1  0  0  0  0
 31 33  1  0  0  0  0
 31 59  1  0  0  0  0
 32 33  1  0  0  0  0
 32 38  1  1  0  0  0
 32 60  1  0  0  0  0
 33 61  1  0  0  0  0
 34 62  1  0  0  0  0
 35 36  1  0  0  0  0
 35 63  1  0  0  0  0
 35 64  1  0  0  0  0
 36 65  1  0  0  0  0
 37 40  2  0  0  0  0
 37 41  1  0  0  0  0
 38 66  1  0  0  0  0
 38 67  1  0  0  0  0
 39 72  1  0  0  0  0
 39 73  1  0  0  0  0
 39 74  1  0  0  0  0
 40 42  1  0  0  0  0
 40 75  1  0  0  0  0
 41 76  1  0  0  0  0
 42 78  1  0  0  0  0
 42 79  1  0  0  0  0
 42 80  1  0  0  0  0
 43 81  1  0  0  0  0
 43 82  1  0  0  0  0
 43 83  1  0  0  0  0
M  END
> <PUBCHEM_COMPOUND_CID>
102150183

> <PUBCHEM_COMPOUND_CANONICALIZED>
1

> <PUBCHEM_CACTVS_COMPLEXITY>
1080

> <PUBCHEM_CACTVS_HBOND_ACCEPTOR>
15

> <PUBCHEM_CACTVS_HBOND_DONOR>
5

> <PUBCHEM_CACTVS_ROTATABLE_BOND>
11

> <PUBCHEM_CACTVS_SUBSKEYS>
AAADcfB4PAAAAAAAAAAAAAAAAAAAAYAAAAAkSIAAAAAAAEAAAAAAGgAACAAADRSwgAMCCAAABgCIAijSiAAACAAgIAAACAEAAEgRFBYAIQAiQAAFoAAPIYPI7vzOgAAAAAAAAAAAAAAAAAAAAYAADAAAAA==

> <PUBCHEM_IUPAC_OPENEYE_NAME>
methyl (1S,4aS,6S,7R,7aS)-6-[(2S,3S,4R,6S)-4-[(E)-1-formylprop-1-enyl]-2-hydroxy-6-methoxy-tetrahydropyran-3-carbonyl]oxy-7-methyl-1-[(2S,3R,4S,5S,6R)-3,4,5-trihydroxy-6-(hydroxymethyl)tetrahydropyran-2-yl]oxy-1,4a,5,6,7,7a-hexahydrocyclopenta[c]pyran-4-carboxylate

> <PUBCHEM_IUPAC_CAS_NAME>
(1S,4aS,6S,7R,7aS)-6-[[(2S,3S,4R,6S)-2-hydroxy-6-methoxy-4-[(E)-1-oxobut-2-en-2-yl]-3-oxanyl]-oxomethoxy]-7-methyl-1-[[(2S,3R,4S,5S,6R)-3,4,5-trihydroxy-6-(hydroxymethyl)-2-oxanyl]oxy]-1,4a,5,6,7,7a-hexahydrocyclopenta[c]pyran-4-carboxylic acid methyl ester

> <PUBCHEM_IUPAC_NAME_MARKUP>
methyl (1<I>S</I>,4<I>a</I><I>S</I>,6<I>S</I>,7<I>R</I>,7<I>a</I><I>S</I>)-6-[(2<I>S</I>,3<I>S</I>,4<I>R</I>,6<I>S</I>)-2-hydroxy-6-methoxy-4-[(<I>E</I>)-1-oxobut-2-en-2-yl]oxane-3-carbonyl]oxy-7-methyl-1-[(2<I>S</I>,3<I>R</I>,4<I>S</I>,5<I>S</I>,6<I>R</I>)-3,4,5-trihydroxy-6-(hydroxymethyl)oxan-2-yl]oxy-1,4<I>a</I>,5,6,7,7<I>a</I>-hexahydrocyclopenta[c]pyran-4-carboxylate

> <PUBCHEM_IUPAC_NAME>
methyl (1S,4aS,6S,7R,7aS)-6-[(2S,3S,4R,6S)-2-hydroxy-6-methoxy-4-[(E)-1-oxobut-2-en-2-yl]oxane-3-carbonyl]oxy-7-methyl-1-[(2S,3R,4S,5S,6R)-3,4,5-trihydroxy-6-(hydroxymethyl)oxan-2-yl]oxy-1,4a,5,6,7,7a-hexahydrocyclopenta[c]pyran-4-carboxylate

> <PUBCHEM_IUPAC_SYSTEMATIC_NAME>
methyl (1S,4aS,6S,7R,7aS)-1-[(2S,3R,4S,5S,6R)-6-(hydroxymethyl)-3,4,5-tris(oxidanyl)oxan-2-yl]oxy-6-[(2S,3S,4R,6S)-6-methoxy-2-oxidanyl-4-[(E)-1-oxidanylidenebut-2-en-2-yl]oxan-3-yl]carbonyloxy-7-methyl-1,4a,5,6,7,7a-hexahydrocyclopenta[c]pyran-4-carboxylate

> <PUBCHEM_IUPAC_TRADITIONAL_NAME>
(1S,4aS,6S,7R,7aS)-6-[(2S,3S,4R,6S)-4-[(E)-1-formylprop-1-enyl]-2-hydroxy-6-methoxy-tetrahydropyran-3-carbonyl]oxy-7-methyl-1-[(2S,3R,4S,5S,6R)-3,4,5-trihydroxy-6-methylol-tetrahydropyran-2-yl]oxy-1,4a,5,6,7,7a-hexahydrocyclopenta[c]pyran-4-carboxylic acid methyl ester

> <PUBCHEM_IUPAC_INCHI>
InChI=1S/C28H40O15/c1-5-12(8-29)13-7-18(37-3)42-26(36)20(13)25(35)40-16-6-14-15(24(34)38-4)10-39-27(19(14)11(16)2)43-28-23(33)22(32)21(31)17(9-30)41-28/h5,8,10-11,13-14,16-23,26-28,30-33,36H,6-7,9H2,1-4H3/b12-5-/t11-,13-,14+,16-,17+,18-,19+,20+,21+,22-,23+,26-,27-,28-/m0/s1

> <PUBCHEM_IUPAC_INCHIKEY>
AZJNCPIRHFRIFV-MWBBRCRPSA-N

> <PUBCHEM_XLOGP3_AA>
-0.4

> <PUBCHEM_EXACT_MASS>
616.23672056

> <PUBCHEM_MOLECULAR_FORMULA>
C28H40O15

> <PUBCHEM_MOLECULAR_WEIGHT>
616.6

> <PUBCHEM_OPENEYE_CAN_SMILES>
CC=C(C=O)C1CC(OC(C1C(=O)OC2CC3C(C2C)C(OC=C3C(=O)OC)OC4C(C(C(C(O4)CO)O)O)O)O)OC

> <PUBCHEM_OPENEYE_ISO_SMILES>
C/C=C(/C=O)\[C@@H]1C[C@H](O[C@@H]([C@H]1C(=O)O[C@H]2C[C@H]3[C@@H]([C@H]2C)[C@@H](OC=C3C(=O)OC)O[C@H]4[C@@H]([C@H]([C@@H]([C@H](O4)CO)O)O)O)O)OC

> <PUBCHEM_CACTVS_TPSA>
217

> <PUBCHEM_MONOISOTOPIC_WEIGHT>
616.23672056

> <PUBCHEM_TOTAL_CHARGE>
0

> <PUBCHEM_HEAVY_ATOM_COUNT>
43

> <PUBCHEM_ATOM_DEF_STEREO_COUNT>
14

> <PUBCHEM_ATOM_UDEF_STEREO_COUNT>
0

> <PUBCHEM_BOND_DEF_STEREO_COUNT>
1

> <PUBCHEM_BOND_UDEF_STEREO_COUNT>
0

> <PUBCHEM_ISOTOPIC_ATOM_COUNT>
0

> <PUBCHEM_COMPONENT_COUNT>
1

> <PUBCHEM_CACTVS_TAUTO_COUNT>
-1

> <PUBCHEM_COORDINATE_TYPE>
1
5
255

> <PUBCHEM_BONDANNOTATIONS>
19  1  6
31  10  5
33  11  6
34  12  6
36  13  5
16  44  6
17  23  6
18  46  6
28  27  5
21  3  6
25  3  5
30  37  6
32  38  5
29  7  6

$$$$
