 
  -OEChem-10192103472D

 70 71  0     1  0  0  0  0  0999 V2000
    4.2690    0.6921    0.0000 O   0  0  0  0  0  0  0  0  0  0  0  0
    7.7991    3.7163    0.0000 O   0  0  0  0  0  0  0  0  0  0  0  0
    4.2690    4.6921    0.0000 O   0  0  0  0  0  0  0  0  0  0  0  0
    2.5369    3.6921    0.0000 O   0  0  0  0  0  0  0  0  0  0  0  0
    5.9943   -1.3423    0.0000 O   0  0  0  0  0  0  0  0  0  0  0  0
    2.5369    0.6921    0.0000 O   0  0  0  0  0  0  0  0  0  0  0  0
    6.8429   -2.8522    0.0000 O   0  0  0  0  0  0  0  0  0  0  0  0
    9.4234   -4.3822    0.0000 O   0  0  0  0  0  0  0  0  0  0  0  0
    7.6915   -4.3622    0.0000 O   0  0  0  0  0  0  0  0  0  0  0  0
    5.1350    2.1921    0.0000 C   0  0  1  0  0  0  0  0  0  0  0  0
    6.0290    1.6575    0.0000 C   0  0  2  0  0  0  0  0  0  0  0  0
    6.9350    2.1713    0.0000 C   0  0  2  0  0  0  0  0  0  0  0  0
    4.2690    1.6921    0.0000 C   0  0  2  0  0  0  0  0  0  0  0  0
    5.1350    3.1921    0.0000 C   0  0  0  0  0  0  0  0  0  0  0  0
    6.0174    0.6575    0.0000 C   0  0  0  0  0  0  0  0  0  0  0  0
    6.9350    3.2130    0.0000 C   0  0  1  0  0  0  0  0  0  0  0  0
    4.2690    3.6921    0.0000 C   0  0  2  0  0  0  0  0  0  0  0  0
    3.4030    2.1921    0.0000 C   0  0  0  0  0  0  0  0  0  0  0  0
    3.4030    3.1921    0.0000 C   0  0  2  0  0  0  0  0  0  0  0  0
    6.0290    3.7268    0.0000 C   0  0  0  0  0  0  0  0  0  0  0  0
    7.7991    1.6680    0.0000 C   0  0  0  0  0  0  0  0  0  0  0  0
    6.8776    0.1476    0.0000 C   0  0  0  0  0  0  0  0  0  0  0  0
    6.8660   -0.8524    0.0000 C   0  0  2  0  0  0  0  0  0  0  0  0
    7.7262   -1.3624    0.0000 C   0  0  0  0  0  0  0  0  0  0  0  0
    3.4030    0.1921    0.0000 C   0  0  0  0  0  0  0  0  0  0  0  0
    3.4030   -0.8079    0.0000 C   0  0  2  0  0  0  0  0  0  0  0  0
    7.7146   -2.3623    0.0000 C   0  0  2  0  0  0  0  0  0  0  0  0
    2.5369   -1.3079    0.0000 C   0  0  0  0  0  0  0  0  0  0  0  0
    8.5748   -2.8723    0.0000 C   0  0  0  0  0  0  0  0  0  0  0  0
    4.2690   -1.3079    0.0000 C   0  0  0  0  0  0  0  0  0  0  0  0
    2.5369   -2.3079    0.0000 C   0  0  0  0  0  0  0  0  0  0  0  0
    8.5633   -3.8722    0.0000 C   0  0  0  0  0  0  0  0  0  0  0  0
    5.8744    2.6114    0.0000 H   0  0  0  0  0  0  0  0  0  0  0  0
    6.5629    1.3423    0.0000 H   0  0  0  0  0  0  0  0  0  0  0  0
    7.4726    2.4803    0.0000 H   0  0  0  0  0  0  0  0  0  0  0  0
    4.8059    1.3821    0.0000 H   0  0  0  0  0  0  0  0  0  0  0  0
    5.4081    0.7723    0.0000 H   0  0  0  0  0  0  0  0  0  0  0  0
    5.7986    0.0774    0.0000 H   0  0  0  0  0  0  0  0  0  0  0  0
    7.4726    2.9040    0.0000 H   0  0  0  0  0  0  0  0  0  0  0  0
    4.8059    4.0021    0.0000 H   0  0  0  0  0  0  0  0  0  0  0  0
    2.7924    2.2998    0.0000 H   0  0  0  0  0  0  0  0  0  0  0  0
    3.1909    1.6095    0.0000 H   0  0  0  0  0  0  0  0  0  0  0  0
    3.4030    3.8121    0.0000 H   0  0  0  0  0  0  0  0  0  0  0  0
    6.0218    4.3468    0.0000 H   0  0  0  0  0  0  0  0  0  0  0  0
    7.4870    1.1322    0.0000 H   0  0  0  0  0  0  0  0  0  0  0  0
    8.3348    1.3559    0.0000 H   0  0  0  0  0  0  0  0  0  0  0  0
    8.1112    2.2037    0.0000 H   0  0  0  0  0  0  0  0  0  0  0  0
    7.4869    0.0328    0.0000 H   0  0  0  0  0  0  0  0  0  0  0  0
    7.0964    0.7277    0.0000 H   0  0  0  0  0  0  0  0  0  0  0  0
    6.3327   -0.5362    0.0000 H   0  0  0  0  0  0  0  0  0  0  0  0
    7.7967    4.3363    0.0000 H   0  0  0  0  0  0  0  0  0  0  0  0
    3.7320    5.0021    0.0000 H   0  0  0  0  0  0  0  0  0  0  0  0
    2.0000    3.3821    0.0000 H   0  0  0  0  0  0  0  0  0  0  0  0
    8.3355   -1.4771    0.0000 H   0  0  0  0  0  0  0  0  0  0  0  0
    7.9450   -0.7822    0.0000 H   0  0  0  0  0  0  0  0  0  0  0  0
    3.4030   -1.4279    0.0000 H   0  0  0  0  0  0  0  0  0  0  0  0
    7.1813   -2.0461    0.0000 H   0  0  0  0  0  0  0  0  0  0  0  0
    5.9871   -1.9623    0.0000 H   0  0  0  0  0  0  0  0  0  0  0  0
    2.3249   -0.7253    0.0000 H   0  0  0  0  0  0  0  0  0  0  0  0
    1.9264   -1.4155    0.0000 H   0  0  0  0  0  0  0  0  0  0  0  0
    9.1841   -2.9870    0.0000 H   0  0  0  0  0  0  0  0  0  0  0  0
    8.7936   -2.2922    0.0000 H   0  0  0  0  0  0  0  0  0  0  0  0
    3.9590   -1.8448    0.0000 H   0  0  0  0  0  0  0  0  0  0  0  0
    4.8059   -1.6179    0.0000 H   0  0  0  0  0  0  0  0  0  0  0  0
    4.5790   -0.7709    0.0000 H   0  0  0  0  0  0  0  0  0  0  0  0
    6.8357   -3.4722    0.0000 H   0  0  0  0  0  0  0  0  0  0  0  0
    1.9169   -2.3079    0.0000 H   0  0  0  0  0  0  0  0  0  0  0  0
    2.5369   -2.9279    0.0000 H   0  0  0  0  0  0  0  0  0  0  0  0
    3.1569   -2.3079    0.0000 H   0  0  0  0  0  0  0  0  0  0  0  0
    9.4163   -5.0021    0.0000 H   0  0  0  0  0  0  0  0  0  0  0  0
 13  1  1  1  0  0  0
  1 25  1  0  0  0  0
 16  2  1  1  0  0  0
  2 51  1  0  0  0  0
 17  3  1  6  0  0  0
  3 52  1  0  0  0  0
 19  4  1  6  0  0  0
  4 53  1  0  0  0  0
 23  5  1  6  0  0  0
  5 58  1  0  0  0  0
  6 25  2  0  0  0  0
 27  7  1  6  0  0  0
  7 66  1  0  0  0  0
  8 32  1  0  0  0  0
  8 70  1  0  0  0  0
  9 32  2  0  0  0  0
 10 11  1  0  0  0  0
 10 13  1  0  0  0  0
 10 14  1  0  0  0  0
 10 33  1  6  0  0  0
 11 12  1  0  0  0  0
 11 15  1  6  0  0  0
 11 34  1  0  0  0  0
 12 16  1  0  0  0  0
 12 21  1  6  0  0  0
 12 35  1  0  0  0  0
 13 18  1  0  0  0  0
 13 36  1  0  0  0  0
 14 17  1  0  0  0  0
 14 20  2  0  0  0  0
 15 22  1  0  0  0  0
 15 37  1  0  0  0  0
 15 38  1  0  0  0  0
 16 20  1  0  0  0  0
 16 39  1  0  0  0  0
 17 19  1  0  0  0  0
 17 40  1  0  0  0  0
 18 19  1  0  0  0  0
 18 41  1  0  0  0  0
 18 42  1  0  0  0  0
 19 43  1  0  0  0  0
 20 44  1  0  0  0  0
 21 45  1  0  0  0  0
 21 46  1  0  0  0  0
 21 47  1  0  0  0  0
 22 23  1  0  0  0  0
 22 48  1  0  0  0  0
 22 49  1  0  0  0  0
 23 24  1  0  0  0  0
 23 50  1  0  0  0  0
 24 27  1  0  0  0  0
 24 54  1  0  0  0  0
 24 55  1  0  0  0  0
 25 26  1  0  0  0  0
 26 28  1  0  0  0  0
 26 30  1  1  0  0  0
 26 56  1  0  0  0  0
 27 29  1  0  0  0  0
 27 57  1  0  0  0  0
 28 31  1  0  0  0  0
 28 59  1  0  0  0  0
 28 60  1  0  0  0  0
 29 32  1  0  0  0  0
 29 61  1  0  0  0  0
 29 62  1  0  0  0  0
 30 63  1  0  0  0  0
 30 64  1  0  0  0  0
 30 65  1  0  0  0  0
 31 67  1  0  0  0  0
 31 68  1  0  0  0  0
 31 69  1  0  0  0  0
M  END
> <PUBCHEM_COMPOUND_CID>
76970261

> <PUBCHEM_COMPOUND_CANONICALIZED>
1

> <PUBCHEM_CACTVS_COMPLEXITY>
678

> <PUBCHEM_CACTVS_HBOND_ACCEPTOR>
9

> <PUBCHEM_CACTVS_HBOND_DONOR>
6

> <PUBCHEM_CACTVS_ROTATABLE_BOND>
11

> <PUBCHEM_CACTVS_SUBSKEYS>
AAADcfB4PAAAAAAAAAAAAAAAAAAAAAAAAAAwQAAAAAAAAACAAAAAGgAACAAADRSggAICCAAABgCIAiDSCAAAAAAgAAAACAEAAAgBFBYAAQACUAAF4AAJEAPI7PzOgAAAAAAAAABCAAIQABCAAAAAAAAAAA==

> <PUBCHEM_IUPAC_OPENEYE_NAME>
(3R,5R)-7-[(1S,2R,3S,5R,6S,8S,8aR)-3,5,6-trihydroxy-2-methyl-8-[(2S)-2-methylbutanoyl]oxy-1,2,3,5,6,7,8,8a-octahydronaphthalen-1-yl]-3,5-dihydroxy-heptanoic acid

> <PUBCHEM_IUPAC_CAS_NAME>
(3R,5R)-7-[(1S,2R,3S,5R,6S,8S,8aR)-3,5,6-trihydroxy-2-methyl-8-[(2S)-2-methyl-1-oxobutoxy]-1,2,3,5,6,7,8,8a-octahydronaphthalen-1-yl]-3,5-dihydroxyheptanoic acid

> <PUBCHEM_IUPAC_NAME_MARKUP>
(3<I>R</I>,5<I>R</I>)-7-[(1<I>S</I>,2<I>R</I>,3<I>S</I>,5<I>R</I>,6<I>S</I>,8<I>S</I>,8<I>a</I><I>R</I>)-3,5,6-trihydroxy-2-methyl-8-[(2<I>S</I>)-2-methylbutanoyl]oxy-1,2,3,5,6,7,8,8<I>a</I>-octahydronaphthalen-1-yl]-3,5-dihydroxyheptanoic acid

> <PUBCHEM_IUPAC_NAME>
(3R,5R)-7-[(1S,2R,3S,5R,6S,8S,8aR)-3,5,6-trihydroxy-2-methyl-8-[(2S)-2-methylbutanoyl]oxy-1,2,3,5,6,7,8,8a-octahydronaphthalen-1-yl]-3,5-dihydroxyheptanoic acid

> <PUBCHEM_IUPAC_SYSTEMATIC_NAME>
(3R,5R)-7-[(1S,2R,3S,5R,6S,8S,8aR)-2-methyl-8-[(2S)-2-methylbutanoyl]oxy-3,5,6-tris(oxidanyl)-1,2,3,5,6,7,8,8a-octahydronaphthalen-1-yl]-3,5-bis(oxidanyl)heptanoic acid

> <PUBCHEM_IUPAC_TRADITIONAL_NAME>
(3R,5R)-7-[(1S,2R,3S,5R,6S,8S,8aR)-3,5,6-trihydroxy-2-methyl-8-[(2S)-2-methylbutanoyl]oxy-1,2,3,5,6,7,8,8a-octahydronaphthalen-1-yl]-3,5-dihydroxy-enanthic acid

> <PUBCHEM_IUPAC_INCHI>
InChI=1S/C23H38O9/c1-4-11(2)23(31)32-19-10-18(27)22(30)16-9-17(26)12(3)15(21(16)19)6-5-13(24)7-14(25)8-20(28)29/h9,11-15,17-19,21-22,24-27,30H,4-8,10H2,1-3H3,(H,28,29)/t11-,12+,13+,14+,15-,17+,18-,19-,21+,22+/m0/s1

> <PUBCHEM_IUPAC_INCHIKEY>
VVBBIFAPOZVEDR-RCGTXINMSA-N

> <PUBCHEM_XLOGP3_AA>
0

> <PUBCHEM_EXACT_MASS>
458.25158279

> <PUBCHEM_MOLECULAR_FORMULA>
C23H38O9

> <PUBCHEM_MOLECULAR_WEIGHT>
458.5

> <PUBCHEM_OPENEYE_CAN_SMILES>
CCC(C)C(=O)OC1CC(C(C2=CC(C(C(C12)CCC(CC(CC(=O)O)O)O)C)O)O)O

> <PUBCHEM_OPENEYE_ISO_SMILES>
CC[C@H](C)C(=O)O[C@H]1C[C@@H]([C@@H](C2=C[C@H]([C@@H]([C@@H]([C@@H]12)CC[C@H](C[C@H](CC(=O)O)O)O)C)O)O)O

> <PUBCHEM_CACTVS_TPSA>
165

> <PUBCHEM_MONOISOTOPIC_WEIGHT>
458.25158279

> <PUBCHEM_TOTAL_CHARGE>
0

> <PUBCHEM_HEAVY_ATOM_COUNT>
32

> <PUBCHEM_ATOM_DEF_STEREO_COUNT>
10

> <PUBCHEM_ATOM_UDEF_STEREO_COUNT>
0

> <PUBCHEM_BOND_DEF_STEREO_COUNT>
0

> <PUBCHEM_BOND_UDEF_STEREO_COUNT>
0

> <PUBCHEM_ISOTOPIC_ATOM_COUNT>
0

> <PUBCHEM_COMPONENT_COUNT>
1

> <PUBCHEM_CACTVS_TAUTO_COUNT>
1

> <PUBCHEM_COORDINATE_TYPE>
1
5
255

> <PUBCHEM_BONDANNOTATIONS>
13  1  5
10  33  6
11  15  6
12  21  6
16  2  5
26  30  5
17  3  6
19  4  6
23  5  6
27  7  6

$$$$
