 
  -OEChem-10192103492D

 84 86  0     1  0  0  0  0  0999 V2000
    7.7331   -0.3100    0.0000 O   0  0  0  0  0  0  0  0  0  0  0  0
    9.4651   -0.3100    0.0000 O   0  0  0  0  0  0  0  0  0  0  0  0
    6.0010   -2.3100    0.0000 O   0  0  0  0  0  0  0  0  0  0  0  0
    5.1350   -0.8100    0.0000 O   0  0  0  0  0  0  0  0  0  0  0  0
    9.4651    2.6900    0.0000 O   0  0  0  0  0  0  0  0  0  0  0  0
    7.7331   -3.3100    0.0000 O   0  0  0  0  0  0  0  0  0  0  0  0
    7.7331    0.6900    0.0000 O   0  0  0  0  0  0  0  0  0  0  0  0
    2.5369   -2.3100    0.0000 O   0  0  0  0  0  0  0  0  0  0  0  0
   11.3312    2.1900    0.0000 O   0  0  0  0  0  0  0  0  0  0  0  0
    2.5369   -0.3100    0.0000 O   0  0  0  0  0  0  0  0  0  0  0  0
    6.0010    0.6900    0.0000 O   0  0  0  0  0  0  0  0  0  0  0  0
    6.8671    2.1900    0.0000 O   0  0  0  0  0  0  0  0  0  0  0  0
    3.4030    1.1900    0.0000 O   0  0  0  0  0  0  0  0  0  0  0  0
   10.3312    3.9220    0.0000 O   0  0  0  0  0  0  0  0  0  0  0  0
    6.8671    4.1900    0.0000 O   0  0  0  0  0  0  0  0  0  0  0  0
   11.8312    3.0560    0.0000 O   0  0  0  0  0  0  0  0  0  0  0  0
    8.5991   -3.8100    0.0000 O   0  0  0  0  0  0  0  0  0  0  0  0
    2.5369   -3.3100    0.0000 O   0  0  0  0  0  0  0  0  0  0  0  0
    9.4651   -2.3100    0.0000 N   0  0  0  0  0  0  0  0  0  0  0  0
    4.2690   -3.3100    0.0000 N   0  0  0  0  0  0  0  0  0  0  0  0
    6.8671   -1.8100    0.0000 C   0  0  1  0  0  0  0  0  0  0  0  0
    8.5991   -1.8100    0.0000 C   0  0  2  0  0  0  0  0  0  0  0  0
    7.7331   -2.3100    0.0000 C   0  0  1  0  0  0  0  0  0  0  0  0
    8.5991   -0.8100    0.0000 C   0  0  2  0  0  0  0  0  0  0  0  0
    6.8671   -0.8100    0.0000 C   0  0  1  0  0  0  0  0  0  0  0  0
    9.4651    0.6900    0.0000 C   0  0  1  0  0  0  0  0  0  0  0  0
    8.5991    1.1900    0.0000 C   0  0  2  0  0  0  0  0  0  0  0  0
    5.1350   -1.8100    0.0000 C   0  0  1  0  0  0  0  0  0  0  0  0
    4.2690   -2.3100    0.0000 C   0  0  1  0  0  0  0  0  0  0  0  0
   10.3312    1.1900    0.0000 C   0  0  0  0  0  0  0  0  0  0  0  0
    8.5991    2.1900    0.0000 C   0  0  1  0  0  0  0  0  0  0  0  0
    3.4030   -1.8100    0.0000 C   0  0  2  0  0  0  0  0  0  0  0  0
   10.3312    2.1900    0.0000 C   0  0  2  0  0  0  0  0  0  0  0  0
    3.4030   -0.8100    0.0000 C   0  0  1  0  0  0  0  0  0  0  0  0
    4.2690   -0.3100    0.0000 C   0  0  1  0  0  0  0  0  0  0  0  0
    6.0010   -0.3100    0.0000 C   0  0  0  0  0  0  0  0  0  0  0  0
    7.7331    2.6900    0.0000 C   0  0  1  0  0  0  0  0  0  0  0  0
    4.2690    0.6900    0.0000 C   0  0  0  0  0  0  0  0  0  0  0  0
   10.8312    3.0560    0.0000 C   0  0  0  0  0  0  0  0  0  0  0  0
    7.7331    3.6900    0.0000 C   0  0  0  0  0  0  0  0  0  0  0  0
    9.4651   -3.3100    0.0000 C   0  0  0  0  0  0  0  0  0  0  0  0
    3.4030   -3.8100    0.0000 C   0  0  0  0  0  0  0  0  0  0  0  0
   10.3312   -3.8100    0.0000 C   0  0  0  0  0  0  0  0  0  0  0  0
    3.4030   -4.8100    0.0000 C   0  0  0  0  0  0  0  0  0  0  0  0
    6.3301   -1.5000    0.0000 H   0  0  0  0  0  0  0  0  0  0  0  0
    9.1360   -1.5000    0.0000 H   0  0  0  0  0  0  0  0  0  0  0  0
    8.2700   -2.6200    0.0000 H   0  0  0  0  0  0  0  0  0  0  0  0
    8.5991   -0.1900    0.0000 H   0  0  0  0  0  0  0  0  0  0  0  0
    6.8671   -0.1900    0.0000 H   0  0  0  0  0  0  0  0  0  0  0  0
   10.0021    0.3800    0.0000 H   0  0  0  0  0  0  0  0  0  0  0  0
    8.0622    1.5000    0.0000 H   0  0  0  0  0  0  0  0  0  0  0  0
    5.1350   -2.4300    0.0000 H   0  0  0  0  0  0  0  0  0  0  0  0
    3.7320   -2.6200    0.0000 H   0  0  0  0  0  0  0  0  0  0  0  0
   10.5432    0.6074    0.0000 H   0  0  0  0  0  0  0  0  0  0  0  0
   10.9417    1.2977    0.0000 H   0  0  0  0  0  0  0  0  0  0  0  0
    8.5991    3.0400    0.0000 H   0  0  0  0  0  0  0  0  0  0  0  0
    3.4030   -2.4300    0.0000 H   0  0  0  0  0  0  0  0  0  0  0  0
    3.4030   -0.1900    0.0000 H   0  0  0  0  0  0  0  0  0  0  0  0
    4.8059    0.0000    0.0000 H   0  0  0  0  0  0  0  0  0  0  0  0
    5.3905   -0.2023    0.0000 H   0  0  0  0  0  0  0  0  0  0  0  0
    5.7890   -0.8926    0.0000 H   0  0  0  0  0  0  0  0  0  0  0  0
   10.0021   -2.0000    0.0000 H   0  0  0  0  0  0  0  0  0  0  0  0
    7.1962    3.0000    0.0000 H   0  0  0  0  0  0  0  0  0  0  0  0
    7.1962   -3.6200    0.0000 H   0  0  0  0  0  0  0  0  0  0  0  0
    4.8059   -3.6200    0.0000 H   0  0  0  0  0  0  0  0  0  0  0  0
    4.8796    0.5823    0.0000 H   0  0  0  0  0  0  0  0  0  0  0  0
    4.4810    1.2726    0.0000 H   0  0  0  0  0  0  0  0  0  0  0  0
    7.1962    1.0000    0.0000 H   0  0  0  0  0  0  0  0  0  0  0  0
    8.3437    3.5823    0.0000 H   0  0  0  0  0  0  0  0  0  0  0  0
    7.9451    4.2726    0.0000 H   0  0  0  0  0  0  0  0  0  0  0  0
    2.0000   -2.0000    0.0000 H   0  0  0  0  0  0  0  0  0  0  0  0
   11.6412    1.6531    0.0000 H   0  0  0  0  0  0  0  0  0  0  0  0
    2.0000   -0.6200    0.0000 H   0  0  0  0  0  0  0  0  0  0  0  0
    5.4641    1.0000    0.0000 H   0  0  0  0  0  0  0  0  0  0  0  0
    6.3301    2.5000    0.0000 H   0  0  0  0  0  0  0  0  0  0  0  0
   10.0212   -4.3469    0.0000 H   0  0  0  0  0  0  0  0  0  0  0  0
   10.8681   -4.1200    0.0000 H   0  0  0  0  0  0  0  0  0  0  0  0
   10.6412   -3.2731    0.0000 H   0  0  0  0  0  0  0  0  0  0  0  0
    3.4030    1.8100    0.0000 H   0  0  0  0  0  0  0  0  0  0  0  0
   10.6412    4.4590    0.0000 H   0  0  0  0  0  0  0  0  0  0  0  0
    2.7830   -4.8100    0.0000 H   0  0  0  0  0  0  0  0  0  0  0  0
    3.4030   -5.4300    0.0000 H   0  0  0  0  0  0  0  0  0  0  0  0
    4.0230   -4.8100    0.0000 H   0  0  0  0  0  0  0  0  0  0  0  0
    6.8671    4.8100    0.0000 H   0  0  0  0  0  0  0  0  0  0  0  0
  1 24  1  0  0  0  0
  1 25  1  0  0  0  0
 24  2  1  6  0  0  0
 26  2  1  1  0  0  0
 21  3  1  6  0  0  0
 28  3  1  6  0  0  0
  4 28  1  0  0  0  0
  4 35  1  0  0  0  0
  5 31  1  0  0  0  0
  5 33  1  0  0  0  0
 23  6  1  1  0  0  0
  6 64  1  0  0  0  0
 27  7  1  1  0  0  0
  7 68  1  0  0  0  0
 32  8  1  1  0  0  0
  8 71  1  0  0  0  0
 33  9  1  6  0  0  0
  9 72  1  0  0  0  0
 34 10  1  6  0  0  0
 10 73  1  0  0  0  0
 11 36  1  0  0  0  0
 11 74  1  0  0  0  0
 37 12  1  6  0  0  0
 12 75  1  0  0  0  0
 13 38  1  0  0  0  0
 13 79  1  0  0  0  0
 14 39  1  0  0  0  0
 14 80  1  0  0  0  0
 15 40  1  0  0  0  0
 15 84  1  0  0  0  0
 16 39  2  0  0  0  0
 17 41  2  0  0  0  0
 18 42  2  0  0  0  0
 22 19  1  6  0  0  0
 19 41  1  0  0  0  0
 19 62  1  0  0  0  0
 29 20  1  6  0  0  0
 20 42  1  0  0  0  0
 20 65  1  0  0  0  0
 21 23  1  0  0  0  0
 21 25  1  0  0  0  0
 21 45  1  0  0  0  0
 22 23  1  0  0  0  0
 22 24  1  0  0  0  0
 22 46  1  0  0  0  0
 23 47  1  0  0  0  0
 24 48  1  0  0  0  0
 25 36  1  1  0  0  0
 25 49  1  0  0  0  0
 26 27  1  0  0  0  0
 26 30  1  0  0  0  0
 26 50  1  0  0  0  0
 27 31  1  0  0  0  0
 27 51  1  0  0  0  0
 28 29  1  0  0  0  0
 28 52  1  0  0  0  0
 29 32  1  0  0  0  0
 29 53  1  0  0  0  0
 30 33  1  0  0  0  0
 30 54  1  0  0  0  0
 30 55  1  0  0  0  0
 31 37  1  0  0  0  0
 31 56  1  6  0  0  0
 32 34  1  0  0  0  0
 32 57  1  0  0  0  0
 33 39  1  0  0  0  0
 34 35  1  0  0  0  0
 34 58  1  0  0  0  0
 35 38  1  1  0  0  0
 35 59  1  0  0  0  0
 36 60  1  0  0  0  0
 36 61  1  0  0  0  0
 37 40  1  0  0  0  0
 37 63  1  0  0  0  0
 38 66  1  0  0  0  0
 38 67  1  0  0  0  0
 40 69  1  0  0  0  0
 40 70  1  0  0  0  0
 41 43  1  0  0  0  0
 42 44  1  0  0  0  0
 43 76  1  0  0  0  0
 43 77  1  0  0  0  0
 43 78  1  0  0  0  0
 44 81  1  0  0  0  0
 44 82  1  0  0  0  0
 44 83  1  0  0  0  0
M  END
> <PUBCHEM_COMPOUND_CID>
91855861

> <PUBCHEM_COMPOUND_CANONICALIZED>
1

> <PUBCHEM_CACTVS_COMPLEXITY>
1010

> <PUBCHEM_CACTVS_HBOND_ACCEPTOR>
18

> <PUBCHEM_CACTVS_HBOND_DONOR>
12

> <PUBCHEM_CACTVS_ROTATABLE_BOND>
11

> <PUBCHEM_CACTVS_SUBSKEYS>
AAADcfB7PgAAAAAAAAAAAAAAAAAAAAAAAAAkSJAAAAAAAAAAAAAAHgAQCAAACDzxgAcCCALABgAIAAGQGAIAAAAAAAAAAIFIAAATEBIAgAQnQAAHFgCXAAH6/K/AAAAAAAAAAAAAAAAAAAAAAAAAAAAAAA==

> <PUBCHEM_IUPAC_OPENEYE_NAME>
(2R,4R,5R,6R)-4-[(2S,3R,4R,5S,6R)-3-acetamido-5-[(2R,3R,4R,5S,6R)-3-acetamido-4,5-dihydroxy-6-(hydroxymethyl)tetrahydropyran-2-yl]oxy-4-hydroxy-6-(hydroxymethyl)tetrahydropyran-2-yl]oxy-6-[(1R)-1,2-dihydroxyethyl]-2,5-dihydroxy-tetrahydropyran-2-carboxylic acid

> <PUBCHEM_IUPAC_CAS_NAME>
(2R,4R,5R,6R)-4-[[(2S,3R,4R,5S,6R)-3-acetamido-5-[[(2R,3R,4R,5S,6R)-3-acetamido-4,5-dihydroxy-6-(hydroxymethyl)-2-oxanyl]oxy]-4-hydroxy-6-(hydroxymethyl)-2-oxanyl]oxy]-6-[(1R)-1,2-dihydroxyethyl]-2,5-dihydroxy-2-oxanecarboxylic acid

> <PUBCHEM_IUPAC_NAME_MARKUP>
(2<I>R</I>,4<I>R</I>,5<I>R</I>,6<I>R</I>)-4-[(2<I>S</I>,3<I>R</I>,4<I>R</I>,5<I>S</I>,6<I>R</I>)-3-acetamido-5-[(2<I>R</I>,3<I>R</I>,4<I>R</I>,5<I>S</I>,6<I>R</I>)-3-acetamido-4,5-dihydroxy-6-(hydroxymethyl)oxan-2-yl]oxy-4-hydroxy-6-(hydroxymethyl)oxan-2-yl]oxy-6-[(1<I>R</I>)-1,2-dihydroxyethyl]-2,5-dihydroxyoxane-2-carboxylic acid

> <PUBCHEM_IUPAC_NAME>
(2R,4R,5R,6R)-4-[(2S,3R,4R,5S,6R)-3-acetamido-5-[(2R,3R,4R,5S,6R)-3-acetamido-4,5-dihydroxy-6-(hydroxymethyl)oxan-2-yl]oxy-4-hydroxy-6-(hydroxymethyl)oxan-2-yl]oxy-6-[(1R)-1,2-dihydroxyethyl]-2,5-dihydroxyoxane-2-carboxylic acid

> <PUBCHEM_IUPAC_SYSTEMATIC_NAME>
(2R,4R,5R,6R)-4-[(2S,3R,4R,5S,6R)-3-acetamido-5-[(2R,3R,4R,5S,6R)-3-acetamido-6-(hydroxymethyl)-4,5-bis(oxidanyl)oxan-2-yl]oxy-6-(hydroxymethyl)-4-oxidanyl-oxan-2-yl]oxy-6-[(1R)-1,2-bis(oxidanyl)ethyl]-2,5-bis(oxidanyl)oxane-2-carboxylic acid

> <PUBCHEM_IUPAC_TRADITIONAL_NAME>
(2R,4R,5R,6R)-4-[(2S,3R,4R,5S,6R)-3-acetamido-5-[(2R,3R,4R,5S,6R)-3-acetamido-4,5-dihydroxy-6-methylol-tetrahydropyran-2-yl]oxy-4-hydroxy-6-methylol-tetrahydropyran-2-yl]oxy-6-[(1R)-1,2-dihydroxyethyl]-2,5-dihydroxy-tetrahydropyran-2-carboxylic acid

> <PUBCHEM_IUPAC_INCHI>
InChI=1S/C24H40N2O18/c1-7(30)25-13-17(35)15(33)11(5-28)41-22(13)43-20-12(6-29)42-21(14(18(20)36)26-8(2)31)40-10-3-24(39,23(37)38)44-19(16(10)34)9(32)4-27/h9-22,27-29,32-36,39H,3-6H2,1-2H3,(H,25,30)(H,26,31)(H,37,38)/t9-,10-,11-,12-,13-,14-,15-,16-,17-,18-,19-,20-,21+,22-,24-/m1/s1

> <PUBCHEM_IUPAC_INCHIKEY>
BNMLNODVORYSLC-MDXVXUTOSA-N

> <PUBCHEM_XLOGP3_AA>
-6.6

> <PUBCHEM_EXACT_MASS>
644.22761243

> <PUBCHEM_MOLECULAR_FORMULA>
C24H40N2O18

> <PUBCHEM_MOLECULAR_WEIGHT>
644.6

> <PUBCHEM_OPENEYE_CAN_SMILES>
CC(=O)NC1C(C(C(OC1OC2C(OC(C(C2O)NC(=O)C)OC3CC(OC(C3O)C(CO)O)(C(=O)O)O)CO)CO)O)O

> <PUBCHEM_OPENEYE_ISO_SMILES>
CC(=O)N[C@@H]1[C@H]([C@@H]([C@H](O[C@@H]1O[C@@H]2[C@H](O[C@@H]([C@@H]([C@H]2O)NC(=O)C)O[C@@H]3C[C@@](O[C@@H]([C@@H]3O)[C@@H](CO)O)(C(=O)O)O)CO)CO)O)O

> <PUBCHEM_CACTVS_TPSA>
324

> <PUBCHEM_MONOISOTOPIC_WEIGHT>
644.22761243

> <PUBCHEM_TOTAL_CHARGE>
0

> <PUBCHEM_HEAVY_ATOM_COUNT>
44

> <PUBCHEM_ATOM_DEF_STEREO_COUNT>
15

> <PUBCHEM_ATOM_UDEF_STEREO_COUNT>
0

> <PUBCHEM_BOND_DEF_STEREO_COUNT>
0

> <PUBCHEM_BOND_UDEF_STEREO_COUNT>
0

> <PUBCHEM_ISOTOPIC_ATOM_COUNT>
0

> <PUBCHEM_COMPONENT_COUNT>
1

> <PUBCHEM_CACTVS_TAUTO_COUNT>
-1

> <PUBCHEM_COORDINATE_TYPE>
1
5
255

> <PUBCHEM_BONDANNOTATIONS>
34  10  6
37  12  6
22  19  6
24  2  6
26  2  5
29  20  6
25  36  5
21  3  6
28  3  6
31  56  6
35  38  5
23  6  5
27  7  5
32  8  5
33  9  6

$$$$
