 
  -OEChem-10192104032D

 60 62  0     1  0  0  0  0  0999 V2000
    5.1350   -2.4050    0.0000 O   0  0  0  0  0  0  0  0  0  0  0  0
    7.7331    3.0950    0.0000 O   0  0  0  0  0  0  0  0  0  0  0  0
    6.8671   -2.4050    0.0000 O   0  0  0  0  0  0  0  0  0  0  0  0
    6.8671    1.5950    0.0000 O   0  0  0  0  0  0  0  0  0  0  0  0
    5.1350   -5.4050    0.0000 O   0  0  0  0  0  0  0  0  0  0  0  0
    3.4030   -4.4050    0.0000 O   0  0  0  0  0  0  0  0  0  0  0  0
   10.3312    1.5950    0.0000 O   0  0  0  0  0  0  0  0  0  0  0  0
   10.3312    3.5950    0.0000 O   0  0  0  0  0  0  0  0  0  0  0  0
    6.8671   -4.4050    0.0000 O   0  0  0  0  0  0  0  0  0  0  0  0
    8.5991    0.5950    0.0000 O   0  0  0  0  0  0  0  0  0  0  0  0
    2.5369   -2.9050    0.0000 O   0  0  0  0  0  0  0  0  0  0  0  0
    7.7331    5.0950    0.0000 O   0  0  0  0  0  0  0  0  0  0  0  0
    8.5991   -1.4050    0.0000 O   0  0  0  0  0  0  0  0  0  0  0  0
    5.1350   -4.4050    0.0000 C   0  0  1  0  0  0  0  0  0  0  0  0
    4.2690   -3.9050    0.0000 C   0  0  1  0  0  0  0  0  0  0  0  0
    9.4651    2.0950    0.0000 C   0  0  1  0  0  0  0  0  0  0  0  0
    9.4651    3.0950    0.0000 C   0  0  1  0  0  0  0  0  0  0  0  0
    6.0010   -3.9050    0.0000 C   0  0  2  0  0  0  0  0  0  0  0  0
    4.2690   -2.9050    0.0000 C   0  0  1  0  0  0  0  0  0  0  0  0
    8.5991    1.5950    0.0000 C   0  0  2  0  0  0  0  0  0  0  0  0
    8.5991    3.5950    0.0000 C   0  0  1  0  0  0  0  0  0  0  0  0
    6.0010   -2.9050    0.0000 C   0  0  1  0  0  0  0  0  0  0  0  0
    7.7331    2.0950    0.0000 C   0  0  1  0  0  0  0  0  0  0  0  0
    3.4030   -2.4050    0.0000 C   0  0  0  0  0  0  0  0  0  0  0  0
    8.5991    4.5950    0.0000 C   0  0  0  0  0  0  0  0  0  0  0  0
    6.8671   -1.4050    0.0000 C   0  0  0  0  0  0  0  0  0  0  0  0
    6.8671    0.5950    0.0000 C   0  0  0  0  0  0  0  0  0  0  0  0
    7.7331   -0.9050    0.0000 C   0  0  0  0  0  0  0  0  0  0  0  0
    7.7331    0.0950    0.0000 C   0  0  0  0  0  0  0  0  0  0  0  0
    6.0010   -0.9050    0.0000 C   0  0  0  0  0  0  0  0  0  0  0  0
    6.0010    0.0950    0.0000 C   0  0  0  0  0  0  0  0  0  0  0  0
    9.4651   -0.9050    0.0000 C   0  0  0  0  0  0  0  0  0  0  0  0
    5.6720   -4.7150    0.0000 H   0  0  0  0  0  0  0  0  0  0  0  0
    3.7320   -3.5950    0.0000 H   0  0  0  0  0  0  0  0  0  0  0  0
    9.4651    1.4750    0.0000 H   0  0  0  0  0  0  0  0  0  0  0  0
   10.0021    2.7850    0.0000 H   0  0  0  0  0  0  0  0  0  0  0  0
    6.5380   -3.5950    0.0000 H   0  0  0  0  0  0  0  0  0  0  0  0
    4.2690   -2.2850    0.0000 H   0  0  0  0  0  0  0  0  0  0  0  0
    8.0622    1.2850    0.0000 H   0  0  0  0  0  0  0  0  0  0  0  0
    8.0622    3.9050    0.0000 H   0  0  0  0  0  0  0  0  0  0  0  0
    6.0010   -2.2850    0.0000 H   0  0  0  0  0  0  0  0  0  0  0  0
    7.1962    2.4050    0.0000 H   0  0  0  0  0  0  0  0  0  0  0  0
    3.8015   -1.9300    0.0000 H   0  0  0  0  0  0  0  0  0  0  0  0
    3.0044   -1.9300    0.0000 H   0  0  0  0  0  0  0  0  0  0  0  0
    9.2097    4.4873    0.0000 H   0  0  0  0  0  0  0  0  0  0  0  0
    8.8112    5.1776    0.0000 H   0  0  0  0  0  0  0  0  0  0  0  0
    4.5981   -5.7150    0.0000 H   0  0  0  0  0  0  0  0  0  0  0  0
    3.4030   -5.0250    0.0000 H   0  0  0  0  0  0  0  0  0  0  0  0
   10.8681    1.9050    0.0000 H   0  0  0  0  0  0  0  0  0  0  0  0
   10.3312    4.2150    0.0000 H   0  0  0  0  0  0  0  0  0  0  0  0
    6.8671   -5.0250    0.0000 H   0  0  0  0  0  0  0  0  0  0  0  0
    9.1360    0.2850    0.0000 H   0  0  0  0  0  0  0  0  0  0  0  0
    8.2700    0.4050    0.0000 H   0  0  0  0  0  0  0  0  0  0  0  0
    5.4641   -1.2150    0.0000 H   0  0  0  0  0  0  0  0  0  0  0  0
    5.4641    0.4050    0.0000 H   0  0  0  0  0  0  0  0  0  0  0  0
    2.0000   -2.5950    0.0000 H   0  0  0  0  0  0  0  0  0  0  0  0
    7.7331    5.7150    0.0000 H   0  0  0  0  0  0  0  0  0  0  0  0
    9.7751   -1.4419    0.0000 H   0  0  0  0  0  0  0  0  0  0  0  0
   10.0021   -0.5950    0.0000 H   0  0  0  0  0  0  0  0  0  0  0  0
    9.1551   -0.3681    0.0000 H   0  0  0  0  0  0  0  0  0  0  0  0
  1 19  1  0  0  0  0
  1 22  1  0  0  0  0
  2 21  1  0  0  0  0
  2 23  1  0  0  0  0
 22  3  1  1  0  0  0
  3 26  1  0  0  0  0
 23  4  1  6  0  0  0
  4 27  1  0  0  0  0
 14  5  1  1  0  0  0
  5 47  1  0  0  0  0
 15  6  1  6  0  0  0
  6 48  1  0  0  0  0
 16  7  1  6  0  0  0
  7 49  1  0  0  0  0
 17  8  1  1  0  0  0
  8 50  1  0  0  0  0
 18  9  1  6  0  0  0
  9 51  1  0  0  0  0
 20 10  1  1  0  0  0
 10 52  1  0  0  0  0
 11 24  1  0  0  0  0
 11 56  1  0  0  0  0
 12 25  1  0  0  0  0
 12 57  1  0  0  0  0
 13 28  1  0  0  0  0
 13 32  1  0  0  0  0
 14 15  1  0  0  0  0
 14 18  1  0  0  0  0
 14 33  1  0  0  0  0
 15 19  1  0  0  0  0
 15 34  1  0  0  0  0
 16 17  1  0  0  0  0
 16 20  1  0  0  0  0
 16 35  1  0  0  0  0
 17 21  1  0  0  0  0
 17 36  1  0  0  0  0
 18 22  1  0  0  0  0
 18 37  1  0  0  0  0
 19 24  1  1  0  0  0
 19 38  1  0  0  0  0
 20 23  1  0  0  0  0
 20 39  1  0  0  0  0
 21 25  1  6  0  0  0
 21 40  1  0  0  0  0
 22 41  1  0  0  0  0
 23 42  1  0  0  0  0
 24 43  1  0  0  0  0
 24 44  1  0  0  0  0
 25 45  1  0  0  0  0
 25 46  1  0  0  0  0
 26 28  2  0  0  0  0
 26 30  1  0  0  0  0
 27 29  2  0  0  0  0
 27 31  1  0  0  0  0
 28 29  1  0  0  0  0
 29 53  1  0  0  0  0
 30 31  2  0  0  0  0
 30 54  1  0  0  0  0
 31 55  1  0  0  0  0
 32 58  1  0  0  0  0
 32 59  1  0  0  0  0
 32 60  1  0  0  0  0
M  END
> <PUBCHEM_COMPOUND_CID>
16681195

> <PUBCHEM_COMPOUND_CANONICALIZED>
1

> <PUBCHEM_CACTVS_COMPLEXITY>
581

> <PUBCHEM_CACTVS_HBOND_ACCEPTOR>
13

> <PUBCHEM_CACTVS_HBOND_DONOR>
8

> <PUBCHEM_CACTVS_ROTATABLE_BOND>
7

> <PUBCHEM_CACTVS_SUBSKEYS>
AAADceB4PAAAAAAAAAAAAAAAAAAAAAAAAAA0SIAAAAAAAAABAAAAGgAACAAACBSwkAMyDoAABgCAACBCAAACCAAgIAAIiAAGiIgdNyKEMRqieCKlwBUPqAfAYAwAAQAACAAAQAACAAAQAACAAAAAAAAAAA==

> <PUBCHEM_IUPAC_OPENEYE_NAME>
(2R,3S,4S,5R,6S)-2-(hydroxymethyl)-6-[3-methoxy-4-[(2S,3R,4S,5S,6R)-3,4,5-trihydroxy-6-(hydroxymethyl)tetrahydropyran-2-yl]oxy-phenoxy]tetrahydropyran-3,4,5-triol

> <PUBCHEM_IUPAC_CAS_NAME>
(2R,3S,4S,5R,6S)-2-(hydroxymethyl)-6-[3-methoxy-4-[[(2S,3R,4S,5S,6R)-3,4,5-trihydroxy-6-(hydroxymethyl)-2-oxanyl]oxy]phenoxy]oxane-3,4,5-triol

> <PUBCHEM_IUPAC_NAME_MARKUP>
(2<I>R</I>,3<I>S</I>,4<I>S</I>,5<I>R</I>,6<I>S</I>)-2-(hydroxymethyl)-6-[3-methoxy-4-[(2<I>S</I>,3<I>R</I>,4<I>S</I>,5<I>S</I>,6<I>R</I>)-3,4,5-trihydroxy-6-(hydroxymethyl)oxan-2-yl]oxyphenoxy]oxane-3,4,5-triol

> <PUBCHEM_IUPAC_NAME>
(2R,3S,4S,5R,6S)-2-(hydroxymethyl)-6-[3-methoxy-4-[(2S,3R,4S,5S,6R)-3,4,5-trihydroxy-6-(hydroxymethyl)oxan-2-yl]oxyphenoxy]oxane-3,4,5-triol

> <PUBCHEM_IUPAC_SYSTEMATIC_NAME>
(2R,3S,4S,5R,6S)-2-(hydroxymethyl)-6-[4-[(2S,3R,4S,5S,6R)-6-(hydroxymethyl)-3,4,5-tris(oxidanyl)oxan-2-yl]oxy-3-methoxy-phenoxy]oxane-3,4,5-triol

> <PUBCHEM_IUPAC_TRADITIONAL_NAME>
(2S,3R,4S,5S,6R)-2-[3-methoxy-4-[(2S,3R,4S,5S,6R)-3,4,5-trihydroxy-6-methylol-tetrahydropyran-2-yl]oxy-phenoxy]-6-methylol-tetrahydropyran-3,4,5-triol

> <PUBCHEM_IUPAC_INCHI>
InChI=1S/C19H28O13/c1-28-9-4-7(29-18-16(26)14(24)12(22)10(5-20)31-18)2-3-8(9)30-19-17(27)15(25)13(23)11(6-21)32-19/h2-4,10-27H,5-6H2,1H3/t10-,11-,12-,13-,14+,15+,16-,17-,18-,19-/m1/s1

> <PUBCHEM_IUPAC_INCHIKEY>
XYTIVPVWLLNVKO-SKYGPZSASA-N

> <PUBCHEM_XLOGP3>
-3.2

> <PUBCHEM_EXACT_MASS>
464.15299094

> <PUBCHEM_MOLECULAR_FORMULA>
C19H28O13

> <PUBCHEM_MOLECULAR_WEIGHT>
464.4

> <PUBCHEM_OPENEYE_CAN_SMILES>
COC1=C(C=CC(=C1)OC2C(C(C(C(O2)CO)O)O)O)OC3C(C(C(C(O3)CO)O)O)O

> <PUBCHEM_OPENEYE_ISO_SMILES>
COC1=C(C=CC(=C1)O[C@H]2[C@@H]([C@H]([C@@H]([C@H](O2)CO)O)O)O)O[C@H]3[C@@H]([C@H]([C@@H]([C@H](O3)CO)O)O)O

> <PUBCHEM_CACTVS_TPSA>
208

> <PUBCHEM_MONOISOTOPIC_WEIGHT>
464.15299094

> <PUBCHEM_TOTAL_CHARGE>
0

> <PUBCHEM_HEAVY_ATOM_COUNT>
32

> <PUBCHEM_ATOM_DEF_STEREO_COUNT>
10

> <PUBCHEM_ATOM_UDEF_STEREO_COUNT>
0

> <PUBCHEM_BOND_DEF_STEREO_COUNT>
0

> <PUBCHEM_BOND_UDEF_STEREO_COUNT>
0

> <PUBCHEM_ISOTOPIC_ATOM_COUNT>
0

> <PUBCHEM_COMPONENT_COUNT>
1

> <PUBCHEM_CACTVS_TAUTO_COUNT>
-1

> <PUBCHEM_COORDINATE_TYPE>
1
5
255

> <PUBCHEM_BONDANNOTATIONS>
20  10  5
19  24  5
21  25  6
26  28  8
26  30  8
27  29  8
27  31  8
28  29  8
22  3  5
30  31  8
23  4  6
14  5  5
15  6  6
16  7  6
17  8  5
18  9  6

$$$$
