 
  -OEChem-10192104382D

 63 66  0     1  0  0  0  0  0999 V2000
    3.5962   -5.4603    0.0000 S   0  0  0  0  0  0  0  0  0  0  0  0
    9.3550   -1.9792    0.0000 O   0  0  0  0  0  0  0  0  0  0  0  0
    9.3550   -0.3697    0.0000 O   0  0  0  0  0  0  0  0  0  0  0  0
    6.8699   -1.1744    0.0000 O   0  0  0  0  0  0  0  0  0  0  0  0
    6.1705   -3.1424    0.0000 O   0  0  0  0  0  0  0  0  0  0  0  0
    8.7959    1.1209    0.0000 O   0  0  0  0  0  0  0  0  0  0  0  0
    7.8689    3.9740    0.0000 O   0  0  0  0  0  0  0  0  0  0  0  0
    6.2216    3.4388    0.0000 O   0  0  0  0  0  0  0  0  0  0  0  0
    4.5743   -5.2524    0.0000 O   0  0  0  0  0  0  0  0  0  0  0  0
    3.2872   -6.4114    0.0000 O   0  0  0  0  0  0  0  0  0  0  0  0
    2.3090   -6.6193    0.0000 O   0  0  0  0  0  0  0  0  0  0  0  0
    2.0000   -7.5704    0.0000 O   0  5  0  0  0  0  0  0  0  0  0  0
    7.1487    0.5857    0.0000 N   0  0  0  0  0  0  0  0  0  0  0  0
    7.5088    2.2798    0.0000 N   0  0  0  0  0  0  0  0  0  0  0  0
    8.4087   -1.6744    0.0000 C   0  0  2  0  0  0  0  0  0  0  0  0
    8.4087   -0.6744    0.0000 C   0  0  3  0  0  0  0  0  0  0  0  0
    7.4577   -1.9834    0.0000 C   0  0  1  0  0  0  0  0  0  0  0  0
    7.4577   -0.3654    0.0000 C   0  0  1  0  0  0  0  0  0  0  0  0
    9.9386   -1.1744    0.0000 C   0  0  0  0  0  0  0  0  0  0  0  0
    7.1487   -2.9345    0.0000 C   0  0  0  0  0  0  0  0  0  0  0  0
   10.7476   -1.7622    0.0000 C   0  0  0  0  0  0  0  0  0  0  0  0
   10.7476   -0.5866    0.0000 C   0  0  0  0  0  0  0  0  0  0  0  0
    7.8178    1.3288    0.0000 C   0  0  0  0  0  0  0  0  0  0  0  0
    6.1705    0.7936    0.0000 C   0  0  0  0  0  0  0  0  0  0  0  0
    5.8615    1.7446    0.0000 C   0  0  0  0  0  0  0  0  0  0  0  0
    5.8615   -4.0935    0.0000 C   0  0  0  0  0  0  0  0  0  0  0  0
    6.5306    2.4878    0.0000 C   0  0  0  0  0  0  0  0  0  0  0  0
    8.1779    3.0230    0.0000 C   0  0  0  0  0  0  0  0  0  0  0  0
    4.8834   -4.3014    0.0000 C   0  0  0  0  0  0  0  0  0  0  0  0
    8.5380    4.7172    0.0000 C   0  0  0  0  0  0  0  0  0  0  0  0
    8.2290    5.6683    0.0000 C   0  0  0  0  0  0  0  0  0  0  0  0
    7.2508    5.8762    0.0000 C   0  0  0  0  0  0  0  0  0  0  0  0
    8.8981    6.4114    0.0000 C   0  0  0  0  0  0  0  0  0  0  0  0
    6.9418    6.8272    0.0000 C   0  0  0  0  0  0  0  0  0  0  0  0
    8.5891    7.3625    0.0000 C   0  0  0  0  0  0  0  0  0  0  0  0
    7.6110    7.5704    0.0000 C   0  0  0  0  0  0  0  0  0  0  0  0
    8.4098   -2.5244    0.0000 H   0  0  0  0  0  0  0  0  0  0  0  0
    8.4095   -0.0544    0.0000 H   0  0  0  0  0  0  0  0  0  0  0  0
    6.8453   -2.0804    0.0000 H   0  0  0  0  0  0  0  0  0  0  0  0
    6.8453   -0.2684    0.0000 H   0  0  0  0  0  0  0  0  0  0  0  0
    7.1703   -3.5541    0.0000 H   0  0  0  0  0  0  0  0  0  0  0  0
    7.7626   -3.0208    0.0000 H   0  0  0  0  0  0  0  0  0  0  0  0
   10.3832   -2.2638    0.0000 H   0  0  0  0  0  0  0  0  0  0  0  0
   11.2492   -2.1266    0.0000 H   0  0  0  0  0  0  0  0  0  0  0  0
   11.1120   -1.2606    0.0000 H   0  0  0  0  0  0  0  0  0  0  0  0
   11.1120   -1.0882    0.0000 H   0  0  0  0  0  0  0  0  0  0  0  0
   11.2492   -0.2222    0.0000 H   0  0  0  0  0  0  0  0  0  0  0  0
   10.3832   -0.0850    0.0000 H   0  0  0  0  0  0  0  0  0  0  0  0
    5.7556    0.3328    0.0000 H   0  0  0  0  0  0  0  0  0  0  0  0
    5.2550    1.8735    0.0000 H   0  0  0  0  0  0  0  0  0  0  0  0
    5.8831   -4.7131    0.0000 H   0  0  0  0  0  0  0  0  0  0  0  0
    6.4755   -4.1798    0.0000 H   0  0  0  0  0  0  0  0  0  0  0  0
    8.5596    2.5344    0.0000 H   0  0  0  0  0  0  0  0  0  0  0  0
    8.7253    3.3141    0.0000 H   0  0  0  0  0  0  0  0  0  0  0  0
    4.8617   -3.6818    0.0000 H   0  0  0  0  0  0  0  0  0  0  0  0
    4.2694   -4.2151    0.0000 H   0  0  0  0  0  0  0  0  0  0  0  0
    8.9197    4.2286    0.0000 H   0  0  0  0  0  0  0  0  0  0  0  0
    9.0854    5.0083    0.0000 H   0  0  0  0  0  0  0  0  0  0  0  0
    6.8360    5.4154    0.0000 H   0  0  0  0  0  0  0  0  0  0  0  0
    9.5046    6.2825    0.0000 H   0  0  0  0  0  0  0  0  0  0  0  0
    6.3354    6.9561    0.0000 H   0  0  0  0  0  0  0  0  0  0  0  0
    9.0040    7.8232    0.0000 H   0  0  0  0  0  0  0  0  0  0  0  0
    7.4194    8.1600    0.0000 H   0  0  0  0  0  0  0  0  0  0  0  0
  1  9  1  0  0  0  0
  1 10  1  0  0  0  0
  2 15  1  0  0  0  0
  2 19  1  0  0  0  0
  3 16  1  0  0  0  0
  3 19  1  0  0  0  0
  4 17  1  0  0  0  0
  4 18  1  0  0  0  0
  5 20  1  0  0  0  0
  5 26  1  0  0  0  0
  6 23  2  0  0  0  0
  7 28  1  0  0  0  0
  7 30  1  0  0  0  0
  8 27  2  0  0  0  0
  9 29  1  0  0  0  0
 10 11  1  0  0  0  0
 11 12  1  0  0  0  0
 18 13  1  1  0  0  0
 13 23  1  0  0  0  0
 13 24  1  0  0  0  0
 14 23  1  0  0  0  0
 14 27  1  0  0  0  0
 14 28  1  0  0  0  0
 15 16  1  0  0  0  0
 15 17  1  0  0  0  0
 15 37  1  6  0  0  0
 16 18  1  0  0  0  0
 16 38  1  0  0  0  0
 17 20  1  1  0  0  0
 17 39  1  0  0  0  0
 18 40  1  0  0  0  0
 19 21  1  0  0  0  0
 19 22  1  0  0  0  0
 20 41  1  0  0  0  0
 20 42  1  0  0  0  0
 21 43  1  0  0  0  0
 21 44  1  0  0  0  0
 21 45  1  0  0  0  0
 22 46  1  0  0  0  0
 22 47  1  0  0  0  0
 22 48  1  0  0  0  0
 24 25  2  0  0  0  0
 24 49  1  0  0  0  0
 25 27  1  0  0  0  0
 25 50  1  0  0  0  0
 26 29  1  0  0  0  0
 26 51  1  0  0  0  0
 26 52  1  0  0  0  0
 28 53  1  0  0  0  0
 28 54  1  0  0  0  0
 29 55  1  0  0  0  0
 29 56  1  0  0  0  0
 30 31  1  0  0  0  0
 30 57  1  0  0  0  0
 30 58  1  0  0  0  0
 31 32  2  0  0  0  0
 31 33  1  0  0  0  0
 32 34  1  0  0  0  0
 32 59  1  0  0  0  0
 33 35  2  0  0  0  0
 33 60  1  0  0  0  0
 34 36  2  0  0  0  0
 34 61  1  0  0  0  0
 35 36  1  0  0  0  0
 35 62  1  0  0  0  0
 36 63  1  0  0  0  0
M  CHG  1  12  -1
M  END
> <PUBCHEM_COMPOUND_CID>
59243542

> <PUBCHEM_COMPOUND_CANONICALIZED>
1

> <PUBCHEM_CACTVS_COMPLEXITY>
779

> <PUBCHEM_CACTVS_HBOND_ACCEPTOR>
12

> <PUBCHEM_CACTVS_HBOND_DONOR>
0

> <PUBCHEM_CACTVS_ROTATABLE_BOND>
12

> <PUBCHEM_CACTVS_SUBSKEYS>
AAADceB7PABAAAAAAAAAAAAAAAAAASJAAAAwQAAAAAASAAABAAAAHgAABAAADBThmAYzCIMABACIAiFWUACCAAAgAgAIiAAICMibJiKAsRivMAAvxyMeqMfw8CoOAAAAAAAAAAAAAAAAAAAAAAAAAAAAAA==

> <PUBCHEM_IUPAC_OPENEYE_NAME>
1-[(4R,6R,6aS)-2,2-dimethyl-6-(2-oxidoperoxysulfanyloxyethoxymethyl)-3a,4,6,6a-tetrahydrofuro[3,4-d][1,3]dioxol-4-yl]-3-(benzyloxymethyl)pyrimidine-2,4-dione

> <PUBCHEM_IUPAC_CAS_NAME>
1-[(4R,6R,6aS)-2,2-dimethyl-6-[2-(oxidodioxythio)oxyethoxymethyl]-3a,4,6,6a-tetrahydrofuro[3,4-d][1,3]dioxol-4-yl]-3-(phenylmethoxymethyl)pyrimidine-2,4-dione

> <PUBCHEM_IUPAC_NAME_MARKUP>
1-[(4<I>R</I>,6<I>R</I>,6<I>a</I><I>S</I>)-2,2-dimethyl-6-(2-oxidoperoxysulfanyloxyethoxymethyl)-3<I>a</I>,4,6,6<I>a</I>-tetrahydrofuro[3,4-d][1,3]dioxol-4-yl]-3-(phenylmethoxymethyl)pyrimidine-2,4-dione

> <PUBCHEM_IUPAC_NAME>
1-[(4R,6R,6aS)-2,2-dimethyl-6-(2-oxidoperoxysulfanyloxyethoxymethyl)-3a,4,6,6a-tetrahydrofuro[3,4-d][1,3]dioxol-4-yl]-3-(phenylmethoxymethyl)pyrimidine-2,4-dione

> <PUBCHEM_IUPAC_SYSTEMATIC_NAME>
1-[(4R,6R,6aS)-2,2-dimethyl-6-(2-oxidanidylperoxysulfanyloxyethoxymethyl)-3a,4,6,6a-tetrahydrofuro[3,4-d][1,3]dioxol-4-yl]-3-(phenylmethoxymethyl)pyrimidine-2,4-dione

> <PUBCHEM_IUPAC_TRADITIONAL_NAME>
1-[(4R,6R,6aS)-2,2-dimethyl-6-[2-(oxidoperoxythio)oxyethoxymethyl]-3a,4,6,6a-tetrahydrofuro[3,4-d][1,3]dioxol-4-yl]-3-(benzoxymethyl)pyrimidine-2,4-quinone

> <PUBCHEM_IUPAC_INCHI>
InChI=1S/C22H28N2O11S/c1-22(2)32-18-16(13-28-10-11-30-36-35-34-27)31-20(19(18)33-22)23-9-8-17(25)24(21(23)26)14-29-12-15-6-4-3-5-7-15/h3-9,16,18-20,27H,10-14H2,1-2H3/p-1/t16-,18+,19?,20-/m1/s1

> <PUBCHEM_IUPAC_INCHIKEY>
JXAKXVCLDKEJGA-FFLWXPKWSA-M

> <PUBCHEM_XLOGP3_AA>
0.7

> <PUBCHEM_EXACT_MASS>
527.13355586

> <PUBCHEM_MOLECULAR_FORMULA>
C22H27N2O11S-

> <PUBCHEM_MOLECULAR_WEIGHT>
527.5

> <PUBCHEM_OPENEYE_CAN_SMILES>
CC1(OC2C(OC(C2O1)N3C=CC(=O)N(C3=O)COCC4=CC=CC=C4)COCCOSOO[O-])C

> <PUBCHEM_OPENEYE_ISO_SMILES>
CC1(O[C@H]2[C@H](O[C@H](C2O1)N3C=CC(=O)N(C3=O)COCC4=CC=CC=C4)COCCOSOO[O-])C

> <PUBCHEM_CACTVS_TPSA>
163

> <PUBCHEM_MONOISOTOPIC_WEIGHT>
527.13355586

> <PUBCHEM_TOTAL_CHARGE>
-1

> <PUBCHEM_HEAVY_ATOM_COUNT>
36

> <PUBCHEM_ATOM_DEF_STEREO_COUNT>
3

> <PUBCHEM_ATOM_UDEF_STEREO_COUNT>
1

> <PUBCHEM_BOND_DEF_STEREO_COUNT>
0

> <PUBCHEM_BOND_UDEF_STEREO_COUNT>
0

> <PUBCHEM_ISOTOPIC_ATOM_COUNT>
0

> <PUBCHEM_COMPONENT_COUNT>
1

> <PUBCHEM_CACTVS_TAUTO_COUNT>
-1

> <PUBCHEM_COORDINATE_TYPE>
1
5
255

> <PUBCHEM_BONDANNOTATIONS>
18  13  5
13  23  8
13  24  8
14  23  8
14  27  8
15  37  6
17  20  5
24  25  8
25  27  8
16  3  3
31  32  8
31  33  8
32  34  8
33  35  8
34  36  8
35  36  8

$$$$
