 
  -OEChem-10192103392D

 67 68  0     0  0  0  0  0  0999 V2000
    7.8301    0.0000    0.0000 S   0  0  0  0  0  0  0  0  0  0  0  0
    6.0981    3.0000    0.0000 S   0  0  0  0  0  0  0  0  0  0  0  0
    4.3660   -4.0000    0.0000 O   0  0  0  0  0  0  0  0  0  0  0  0
    7.8301    2.0000    0.0000 O   0  0  0  0  0  0  0  0  0  0  0  0
    8.6962   -0.5000    0.0000 O   0  0  0  0  0  0  0  0  0  0  0  0
    6.0981    4.0000    0.0000 O   0  0  0  0  0  0  0  0  0  0  0  0
    8.3301    0.8660    0.0000 O   0  0  0  0  0  0  0  0  0  0  0  0
    7.3301   -0.8660    0.0000 O   0  0  0  0  0  0  0  0  0  0  0  0
    5.0981    3.0000    0.0000 O   0  0  0  0  0  0  0  0  0  0  0  0
    7.0981    3.0000    0.0000 O   0  0  0  0  0  0  0  0  0  0  0  0
    4.3660   -3.0000    0.0000 N   0  0  0  0  0  0  0  0  0  0  0  0
    5.2320   -2.5000    0.0000 C   0  0  0  0  0  0  0  0  0  0  0  0
    3.5000   -2.5000    0.0000 C   0  0  0  0  0  0  0  0  0  0  0  0
    4.3660   -1.0000    0.0000 C   0  0  0  0  0  0  0  0  0  0  0  0
    5.2320   -1.5000    0.0000 C   0  0  0  0  0  0  0  0  0  0  0  0
    3.5000   -1.5000    0.0000 C   0  0  0  0  0  0  0  0  0  0  0  0
    6.2320   -2.5000    0.0000 C   0  0  0  0  0  0  0  0  0  0  0  0
    5.7320   -3.3660    0.0000 C   0  0  0  0  0  0  0  0  0  0  0  0
    2.5000   -2.5000    0.0000 C   0  0  0  0  0  0  0  0  0  0  0  0
    3.0000   -3.3660    0.0000 C   0  0  0  0  0  0  0  0  0  0  0  0
    4.3660   -0.0000    0.0000 C   0  0  0  0  0  0  0  0  0  0  0  0
    6.7320   -3.3660    0.0000 C   0  0  0  0  0  0  0  0  0  0  0  0
    5.2320   -4.2320    0.0000 C   0  0  0  0  0  0  0  0  0  0  0  0
    2.0000   -1.6340    0.0000 C   0  0  0  0  0  0  0  0  0  0  0  0
    2.0000   -3.3660    0.0000 C   0  0  0  0  0  0  0  0  0  0  0  0
    5.2320    0.5000    0.0000 C   0  0  0  0  0  0  0  0  0  0  0  0
    5.2320    1.5000    0.0000 C   0  0  0  0  0  0  0  0  0  0  0  0
    6.0981    0.0000    0.0000 C   0  0  0  0  0  0  0  0  0  0  0  0
    6.9641    0.5000    0.0000 C   0  0  0  0  0  0  0  0  0  0  0  0
    6.0981    2.0000    0.0000 C   0  0  0  0  0  0  0  0  0  0  0  0
    6.9641    1.5000    0.0000 C   0  0  0  0  0  0  0  0  0  0  0  0
    7.8301    3.0000    0.0000 C   0  0  0  0  0  0  0  0  0  0  0  0
    4.9030   -0.6900    0.0000 H   0  0  0  0  0  0  0  0  0  0  0  0
    5.8426   -1.6077    0.0000 H   0  0  0  0  0  0  0  0  0  0  0  0
    5.4441   -0.9174    0.0000 H   0  0  0  0  0  0  0  0  0  0  0  0
    3.2880   -0.9174    0.0000 H   0  0  0  0  0  0  0  0  0  0  0  0
    2.8894   -1.6077    0.0000 H   0  0  0  0  0  0  0  0  0  0  0  0
    6.8147   -2.2880    0.0000 H   0  0  0  0  0  0  0  0  0  0  0  0
    6.1244   -1.8894    0.0000 H   0  0  0  0  0  0  0  0  0  0  0  0
    6.2070   -3.7646    0.0000 H   0  0  0  0  0  0  0  0  0  0  0  0
    6.2070   -2.9675    0.0000 H   0  0  0  0  0  0  0  0  0  0  0  0
    1.9174   -2.7120    0.0000 H   0  0  0  0  0  0  0  0  0  0  0  0
    2.6077   -3.1106    0.0000 H   0  0  0  0  0  0  0  0  0  0  0  0
    2.8923   -3.9766    0.0000 H   0  0  0  0  0  0  0  0  0  0  0  0
    3.5826   -3.5781    0.0000 H   0  0  0  0  0  0  0  0  0  0  0  0
    4.1540    0.5826    0.0000 H   0  0  0  0  0  0  0  0  0  0  0  0
    3.7554   -0.1077    0.0000 H   0  0  0  0  0  0  0  0  0  0  0  0
    6.1951   -3.6760    0.0000 H   0  0  0  0  0  0  0  0  0  0  0  0
    7.0420   -3.9030    0.0000 H   0  0  0  0  0  0  0  0  0  0  0  0
    7.2690   -3.0560    0.0000 H   0  0  0  0  0  0  0  0  0  0  0  0
    4.6951   -3.9220    0.0000 H   0  0  0  0  0  0  0  0  0  0  0  0
    4.9220   -4.7690    0.0000 H   0  0  0  0  0  0  0  0  0  0  0  0
    5.7690   -4.5420    0.0000 H   0  0  0  0  0  0  0  0  0  0  0  0
    2.5369   -1.3240    0.0000 H   0  0  0  0  0  0  0  0  0  0  0  0
    1.6900   -1.0970    0.0000 H   0  0  0  0  0  0  0  0  0  0  0  0
    1.4631   -1.9440    0.0000 H   0  0  0  0  0  0  0  0  0  0  0  0
    2.0000   -2.7460    0.0000 H   0  0  0  0  0  0  0  0  0  0  0  0
    1.3800   -3.3660    0.0000 H   0  0  0  0  0  0  0  0  0  0  0  0
    2.0000   -3.9860    0.0000 H   0  0  0  0  0  0  0  0  0  0  0  0
    3.8291   -4.3100    0.0000 H   0  0  0  0  0  0  0  0  0  0  0  0
    4.6951    1.8100    0.0000 H   0  0  0  0  0  0  0  0  0  0  0  0
    6.0981   -0.6200    0.0000 H   0  0  0  0  0  0  0  0  0  0  0  0
    9.2331   -0.1900    0.0000 H   0  0  0  0  0  0  0  0  0  0  0  0
    5.5611    4.3100    0.0000 H   0  0  0  0  0  0  0  0  0  0  0  0
    8.4501    3.0000    0.0000 H   0  0  0  0  0  0  0  0  0  0  0  0
    7.8301    3.6200    0.0000 H   0  0  0  0  0  0  0  0  0  0  0  0
    7.2101    3.0000    0.0000 H   0  0  0  0  0  0  0  0  0  0  0  0
  1  5  1  0  0  0  0
  1  7  2  0  0  0  0
  1  8  2  0  0  0  0
  1 29  1  0  0  0  0
  2  6  1  0  0  0  0
  2  9  2  0  0  0  0
  2 10  2  0  0  0  0
  2 30  1  0  0  0  0
  3 11  1  0  0  0  0
  3 60  1  0  0  0  0
  4 31  1  0  0  0  0
  4 32  1  0  0  0  0
  5 63  1  0  0  0  0
  6 64  1  0  0  0  0
 11 12  1  0  0  0  0
 11 13  1  0  0  0  0
 12 15  1  0  0  0  0
 12 17  1  0  0  0  0
 12 18  1  0  0  0  0
 13 16  1  0  0  0  0
 13 19  1  0  0  0  0
 13 20  1  0  0  0  0
 14 15  1  0  0  0  0
 14 16  1  0  0  0  0
 14 21  1  0  0  0  0
 14 33  1  0  0  0  0
 15 34  1  0  0  0  0
 15 35  1  0  0  0  0
 16 36  1  0  0  0  0
 16 37  1  0  0  0  0
 17 22  1  0  0  0  0
 17 38  1  0  0  0  0
 17 39  1  0  0  0  0
 18 23  1  0  0  0  0
 18 40  1  0  0  0  0
 18 41  1  0  0  0  0
 19 24  1  0  0  0  0
 19 42  1  0  0  0  0
 19 43  1  0  0  0  0
 20 25  1  0  0  0  0
 20 44  1  0  0  0  0
 20 45  1  0  0  0  0
 21 26  1  0  0  0  0
 21 46  1  0  0  0  0
 21 47  1  0  0  0  0
 22 48  1  0  0  0  0
 22 49  1  0  0  0  0
 22 50  1  0  0  0  0
 23 51  1  0  0  0  0
 23 52  1  0  0  0  0
 23 53  1  0  0  0  0
 24 54  1  0  0  0  0
 24 55  1  0  0  0  0
 24 56  1  0  0  0  0
 25 57  1  0  0  0  0
 25 58  1  0  0  0  0
 25 59  1  0  0  0  0
 26 27  2  0  0  0  0
 26 28  1  0  0  0  0
 27 30  1  0  0  0  0
 27 61  1  0  0  0  0
 28 29  2  0  0  0  0
 28 62  1  0  0  0  0
 29 31  1  0  0  0  0
 30 31  2  0  0  0  0
 32 65  1  0  0  0  0
 32 66  1  0  0  0  0
 32 67  1  0  0  0  0
M  END
> <PUBCHEM_COMPOUND_CID>
134344266

> <PUBCHEM_COMPOUND_CANONICALIZED>
1

> <PUBCHEM_CACTVS_COMPLEXITY>
761

> <PUBCHEM_CACTVS_HBOND_ACCEPTOR>
9

> <PUBCHEM_CACTVS_HBOND_DONOR>
3

> <PUBCHEM_CACTVS_ROTATABLE_BOND>
9

> <PUBCHEM_CACTVS_SUBSKEYS>
AAADcfB6PABgAAAAAAAAAAAAAAAAAAAAAAA8QAAAAAAAAAABAAAAHgQECAAADYyB2AIyB4IQBIKAAiBCAHBCCEAgIAAgiBoECIgMJiKEsRqEMCAkwBGIqAeQwOAOIAAAgEAAIABAAAEAgABAAAAAAAAAAA==

> <PUBCHEM_IUPAC_OPENEYE_NAME>
2-methoxy-5-[(2,2,6,6-tetraethyl-1-hydroxy-4-piperidyl)methyl]benzene-1,3-disulfonic acid

> <PUBCHEM_IUPAC_CAS_NAME>
2-methoxy-5-[(2,2,6,6-tetraethyl-1-hydroxy-4-piperidinyl)methyl]benzene-1,3-disulfonic acid

> <PUBCHEM_IUPAC_NAME_MARKUP>
2-methoxy-5-[(2,2,6,6-tetraethyl-1-hydroxypiperidin-4-yl)methyl]benzene-1,3-disulfonic acid

> <PUBCHEM_IUPAC_NAME>
2-methoxy-5-[(2,2,6,6-tetraethyl-1-hydroxypiperidin-4-yl)methyl]benzene-1,3-disulfonic acid

> <PUBCHEM_IUPAC_SYSTEMATIC_NAME>
2-methoxy-5-[(2,2,6,6-tetraethyl-1-oxidanyl-piperidin-4-yl)methyl]benzene-1,3-disulfonic acid

> <PUBCHEM_IUPAC_TRADITIONAL_NAME>
2-methoxy-5-[(2,2,6,6-tetraethyl-1-hydroxy-4-piperidyl)methyl]benzene-1,3-disulfonic acid

> <PUBCHEM_IUPAC_INCHI>
InChI=1S/C21H35NO8S2/c1-6-20(7-2)13-16(14-21(8-3,9-4)22(20)23)10-15-11-17(31(24,25)26)19(30-5)18(12-15)32(27,28)29/h11-12,16,23H,6-10,13-14H2,1-5H3,(H,24,25,26)(H,27,28,29)

> <PUBCHEM_IUPAC_INCHIKEY>
PPXJTTBXFJRGHC-UHFFFAOYSA-N

> <PUBCHEM_XLOGP3_AA>
1

> <PUBCHEM_EXACT_MASS>
493.18040942

> <PUBCHEM_MOLECULAR_FORMULA>
C21H35NO8S2

> <PUBCHEM_MOLECULAR_WEIGHT>
493.6

> <PUBCHEM_OPENEYE_CAN_SMILES>
CCC1(CC(CC(N1O)(CC)CC)CC2=CC(=C(C(=C2)S(=O)(=O)O)OC)S(=O)(=O)O)CC

> <PUBCHEM_OPENEYE_ISO_SMILES>
CCC1(CC(CC(N1O)(CC)CC)CC2=CC(=C(C(=C2)S(=O)(=O)O)OC)S(=O)(=O)O)CC

> <PUBCHEM_CACTVS_TPSA>
158

> <PUBCHEM_MONOISOTOPIC_WEIGHT>
493.18040942

> <PUBCHEM_TOTAL_CHARGE>
0

> <PUBCHEM_HEAVY_ATOM_COUNT>
32

> <PUBCHEM_ATOM_DEF_STEREO_COUNT>
0

> <PUBCHEM_ATOM_UDEF_STEREO_COUNT>
0

> <PUBCHEM_BOND_DEF_STEREO_COUNT>
0

> <PUBCHEM_BOND_UDEF_STEREO_COUNT>
0

> <PUBCHEM_ISOTOPIC_ATOM_COUNT>
0

> <PUBCHEM_COMPONENT_COUNT>
1

> <PUBCHEM_CACTVS_TAUTO_COUNT>
-1

> <PUBCHEM_COORDINATE_TYPE>
1
5
255

> <PUBCHEM_BONDANNOTATIONS>
26  27  8
26  28  8
27  30  8
28  29  8
29  31  8
30  31  8

$$$$
