 
  -OEChem-10192104092D

 63 65  0     1  0  0  0  0  0999 V2000
    6.8671    0.4050    0.0000 O   0  0  0  0  0  0  0  0  0  0  0  0
    4.2690   -2.0950    0.0000 O   0  0  0  0  0  0  0  0  0  0  0  0
    6.0010   -2.0950    0.0000 O   0  0  0  0  0  0  0  0  0  0  0  0
    7.7331   -2.0950    0.0000 O   0  0  0  0  0  0  0  0  0  0  0  0
    9.4651   -1.0950    0.0000 O   0  0  0  0  0  0  0  0  0  0  0  0
    7.7331    1.9050    0.0000 O   0  0  0  0  0  0  0  0  0  0  0  0
    6.0010   -4.0950    0.0000 O   0  0  0  0  0  0  0  0  0  0  0  0
    4.2690   -5.0950    0.0000 O   0  0  0  0  0  0  0  0  0  0  0  0
    2.5369   -4.0950    0.0000 O   0  0  0  0  0  0  0  0  0  0  0  0
    9.4651    0.9050    0.0000 O   0  0  0  0  0  0  0  0  0  0  0  0
    2.5369   -1.0950    0.0000 O   0  0  0  0  0  0  0  0  0  0  0  0
    7.7331    3.9050    0.0000 O   0  0  0  0  0  0  0  0  0  0  0  0
    6.8671   -0.5950    0.0000 C   0  0  1  0  0  0  0  0  0  0  0  0
    7.7331   -1.0950    0.0000 C   0  0  2  0  0  0  0  0  0  0  0  0
    8.5991   -0.5950    0.0000 C   0  0  1  0  0  0  0  0  0  0  0  0
    5.1350   -3.5950    0.0000 C   0  0  2  0  0  0  0  0  0  0  0  0
    4.2690   -4.0950    0.0000 C   0  0  2  0  0  0  0  0  0  0  0  0
    5.1350   -2.5950    0.0000 C   0  0  1  0  0  0  0  0  0  0  0  0
    3.4030   -3.5950    0.0000 C   0  0  1  0  0  0  0  0  0  0  0  0
    8.5991    0.4050    0.0000 C   0  0  2  0  0  0  0  0  0  0  0  0
    3.4030   -2.5950    0.0000 C   0  0  1  0  0  0  0  0  0  0  0  0
    6.0010   -1.0950    0.0000 C   0  0  0  0  0  0  0  0  0  0  0  0
    7.7331    0.9050    0.0000 C   0  0  1  0  0  0  0  0  0  0  0  0
    2.5369   -2.0950    0.0000 C   0  0  0  0  0  0  0  0  0  0  0  0
    6.8671    2.4050    0.0000 C   0  0  0  0  0  0  0  0  0  0  0  0
    6.8671    3.4050    0.0000 C   0  0  0  0  0  0  0  0  0  0  0  0
    6.0010    1.9050    0.0000 C   0  0  0  0  0  0  0  0  0  0  0  0
    6.0010    3.9050    0.0000 C   0  0  0  0  0  0  0  0  0  0  0  0
    5.1350    2.4050    0.0000 C   0  0  0  0  0  0  0  0  0  0  0  0
    5.1350    3.4050    0.0000 C   0  0  0  0  0  0  0  0  0  0  0  0
    4.2690    3.9050    0.0000 C   0  0  0  0  0  0  0  0  0  0  0  0
    4.2690    4.9050    0.0000 C   0  0  0  0  0  0  0  0  0  0  0  0
    3.4030    5.4050    0.0000 C   0  0  0  0  0  0  0  0  0  0  0  0
    6.3301   -0.2850    0.0000 H   0  0  0  0  0  0  0  0  0  0  0  0
    8.2700   -1.4050    0.0000 H   0  0  0  0  0  0  0  0  0  0  0  0
    9.1360   -0.2850    0.0000 H   0  0  0  0  0  0  0  0  0  0  0  0
    5.1350   -4.2150    0.0000 H   0  0  0  0  0  0  0  0  0  0  0  0
    3.7320   -4.4050    0.0000 H   0  0  0  0  0  0  0  0  0  0  0  0
    5.1350   -1.9750    0.0000 H   0  0  0  0  0  0  0  0  0  0  0  0
    3.4030   -4.2150    0.0000 H   0  0  0  0  0  0  0  0  0  0  0  0
    8.5991    1.0250    0.0000 H   0  0  0  0  0  0  0  0  0  0  0  0
    3.4030   -1.9750    0.0000 H   0  0  0  0  0  0  0  0  0  0  0  0
    5.7890   -0.5124    0.0000 H   0  0  0  0  0  0  0  0  0  0  0  0
    5.3905   -1.2027    0.0000 H   0  0  0  0  0  0  0  0  0  0  0  0
    7.1962    1.2150    0.0000 H   0  0  0  0  0  0  0  0  0  0  0  0
    1.9264   -1.9873    0.0000 H   0  0  0  0  0  0  0  0  0  0  0  0
    2.3249   -2.6776    0.0000 H   0  0  0  0  0  0  0  0  0  0  0  0
    8.2700   -2.4050    0.0000 H   0  0  0  0  0  0  0  0  0  0  0  0
   10.0021   -0.7850    0.0000 H   0  0  0  0  0  0  0  0  0  0  0  0
    6.5380   -3.7850    0.0000 H   0  0  0  0  0  0  0  0  0  0  0  0
    3.7320   -5.4050    0.0000 H   0  0  0  0  0  0  0  0  0  0  0  0
    2.0000   -3.7850    0.0000 H   0  0  0  0  0  0  0  0  0  0  0  0
    9.4651    1.5250    0.0000 H   0  0  0  0  0  0  0  0  0  0  0  0
    2.0000   -0.7850    0.0000 H   0  0  0  0  0  0  0  0  0  0  0  0
    6.0010    1.2850    0.0000 H   0  0  0  0  0  0  0  0  0  0  0  0
    6.0010    4.5250    0.0000 H   0  0  0  0  0  0  0  0  0  0  0  0
    4.5981    2.0950    0.0000 H   0  0  0  0  0  0  0  0  0  0  0  0
    3.6584    4.0127    0.0000 H   0  0  0  0  0  0  0  0  0  0  0  0
    4.0569    3.3224    0.0000 H   0  0  0  0  0  0  0  0  0  0  0  0
    7.7331    4.5250    0.0000 H   0  0  0  0  0  0  0  0  0  0  0  0
    4.8059    5.2150    0.0000 H   0  0  0  0  0  0  0  0  0  0  0  0
    3.4030    6.0250    0.0000 H   0  0  0  0  0  0  0  0  0  0  0  0
    2.8660    5.0950    0.0000 H   0  0  0  0  0  0  0  0  0  0  0  0
  1 13  1  0  0  0  0
  1 23  1  0  0  0  0
  2 18  1  0  0  0  0
  2 21  1  0  0  0  0
 18  3  1  1  0  0  0
  3 22  1  0  0  0  0
 14  4  1  6  0  0  0
  4 48  1  0  0  0  0
 15  5  1  1  0  0  0
  5 49  1  0  0  0  0
 23  6  1  1  0  0  0
  6 25  1  0  0  0  0
 16  7  1  6  0  0  0
  7 50  1  0  0  0  0
 17  8  1  1  0  0  0
  8 51  1  0  0  0  0
 19  9  1  6  0  0  0
  9 52  1  0  0  0  0
 20 10  1  6  0  0  0
 10 53  1  0  0  0  0
 11 24  1  0  0  0  0
 11 54  1  0  0  0  0
 12 26  1  0  0  0  0
 12 60  1  0  0  0  0
 13 14  1  0  0  0  0
 13 22  1  1  0  0  0
 13 34  1  0  0  0  0
 14 15  1  0  0  0  0
 14 35  1  0  0  0  0
 15 20  1  0  0  0  0
 15 36  1  0  0  0  0
 16 17  1  0  0  0  0
 16 18  1  0  0  0  0
 16 37  1  0  0  0  0
 17 19  1  0  0  0  0
 17 38  1  0  0  0  0
 18 39  1  0  0  0  0
 19 21  1  0  0  0  0
 19 40  1  0  0  0  0
 20 23  1  0  0  0  0
 20 41  1  0  0  0  0
 21 24  1  1  0  0  0
 21 42  1  0  0  0  0
 22 43  1  0  0  0  0
 22 44  1  0  0  0  0
 23 45  1  0  0  0  0
 24 46  1  0  0  0  0
 24 47  1  0  0  0  0
 25 26  2  0  0  0  0
 25 27  1  0  0  0  0
 26 28  1  0  0  0  0
 27 29  2  0  0  0  0
 27 55  1  0  0  0  0
 28 30  2  0  0  0  0
 28 56  1  0  0  0  0
 29 30  1  0  0  0  0
 29 57  1  0  0  0  0
 30 31  1  0  0  0  0
 31 32  1  0  0  0  0
 31 58  1  0  0  0  0
 31 59  1  0  0  0  0
 32 33  2  0  0  0  0
 32 61  1  0  0  0  0
 33 62  1  0  0  0  0
 33 63  1  0  0  0  0
M  END
> <PUBCHEM_COMPOUND_CID>
45359647

> <PUBCHEM_COMPOUND_CANONICALIZED>
1

> <PUBCHEM_CACTVS_COMPLEXITY>
622

> <PUBCHEM_CACTVS_HBOND_ACCEPTOR>
12

> <PUBCHEM_CACTVS_HBOND_DONOR>
8

> <PUBCHEM_CACTVS_ROTATABLE_BOND>
8

> <PUBCHEM_CACTVS_SUBSKEYS>
AAADceB4PAAAAAAAAAAAAAAAAAAAAAAAAAA0SIAAAAAAAAABAAAAGgAACAAADBSwmAMwDoAABgCAAiBCAAACCAAgIAAIiAAGiIgdNiKGMRqieCOlwBEPuAfA4LwOIAABAAAAQABAAAIAAACAAAAAAAAAAA==

> <PUBCHEM_IUPAC_OPENEYE_NAME>
(2R,3R,4S,5S,6R)-2-[[(2R,3S,4S,5R,6S)-6-(4-allyl-2-hydroxy-phenoxy)-3,4,5-trihydroxy-tetrahydropyran-2-yl]methoxy]-6-(hydroxymethyl)tetrahydropyran-3,4,5-triol

> <PUBCHEM_IUPAC_CAS_NAME>
(2R,3S,4S,5R,6R)-2-(hydroxymethyl)-6-[[(2R,3S,4S,5R,6S)-3,4,5-trihydroxy-6-(2-hydroxy-4-prop-2-enylphenoxy)-2-oxanyl]methoxy]oxane-3,4,5-triol

> <PUBCHEM_IUPAC_NAME_MARKUP>
(2<I>R</I>,3<I>S</I>,4<I>S</I>,5<I>R</I>,6<I>R</I>)-2-(hydroxymethyl)-6-[[(2<I>R</I>,3<I>S</I>,4<I>S</I>,5<I>R</I>,6<I>S</I>)-3,4,5-trihydroxy-6-(2-hydroxy-4-prop-2-enylphenoxy)oxan-2-yl]methoxy]oxane-3,4,5-triol

> <PUBCHEM_IUPAC_NAME>
(2R,3S,4S,5R,6R)-2-(hydroxymethyl)-6-[[(2R,3S,4S,5R,6S)-3,4,5-trihydroxy-6-(2-hydroxy-4-prop-2-enylphenoxy)oxan-2-yl]methoxy]oxane-3,4,5-triol

> <PUBCHEM_IUPAC_SYSTEMATIC_NAME>
(2R,3S,4S,5R,6R)-2-(hydroxymethyl)-6-[[(2R,3S,4S,5R,6S)-3,4,5-tris(oxidanyl)-6-(2-oxidanyl-4-prop-2-enyl-phenoxy)oxan-2-yl]methoxy]oxane-3,4,5-triol

> <PUBCHEM_IUPAC_TRADITIONAL_NAME>
(2R,3R,4S,5S,6R)-2-[[(2R,3S,4S,5R,6S)-6-(4-allyl-2-hydroxy-phenoxy)-3,4,5-trihydroxy-tetrahydropyran-2-yl]methoxy]-6-methylol-tetrahydropyran-3,4,5-triol

> <PUBCHEM_IUPAC_INCHI>
InChI=1S/C21H30O12/c1-2-3-9-4-5-11(10(23)6-9)31-21-19(29)17(27)15(25)13(33-21)8-30-20-18(28)16(26)14(24)12(7-22)32-20/h2,4-6,12-29H,1,3,7-8H2/t12-,13-,14-,15-,16+,17+,18-,19-,20-,21-/m1/s1

> <PUBCHEM_IUPAC_INCHIKEY>
JSQKCXPOJUGOCX-LWZURRPWSA-N

> <PUBCHEM_XLOGP3_AA>
-1.7

> <PUBCHEM_EXACT_MASS>
474.17372639

> <PUBCHEM_MOLECULAR_FORMULA>
C21H30O12

> <PUBCHEM_MOLECULAR_WEIGHT>
474.5

> <PUBCHEM_OPENEYE_CAN_SMILES>
C=CCC1=CC(=C(C=C1)OC2C(C(C(C(O2)COC3C(C(C(C(O3)CO)O)O)O)O)O)O)O

> <PUBCHEM_OPENEYE_ISO_SMILES>
C=CCC1=CC(=C(C=C1)O[C@H]2[C@@H]([C@H]([C@@H]([C@H](O2)CO[C@H]3[C@@H]([C@H]([C@@H]([C@H](O3)CO)O)O)O)O)O)O)O

> <PUBCHEM_CACTVS_TPSA>
199

> <PUBCHEM_MONOISOTOPIC_WEIGHT>
474.17372639

> <PUBCHEM_TOTAL_CHARGE>
0

> <PUBCHEM_HEAVY_ATOM_COUNT>
33

> <PUBCHEM_ATOM_DEF_STEREO_COUNT>
10

> <PUBCHEM_ATOM_UDEF_STEREO_COUNT>
0

> <PUBCHEM_BOND_DEF_STEREO_COUNT>
0

> <PUBCHEM_BOND_UDEF_STEREO_COUNT>
0

> <PUBCHEM_ISOTOPIC_ATOM_COUNT>
0

> <PUBCHEM_COMPONENT_COUNT>
1

> <PUBCHEM_CACTVS_TAUTO_COUNT>
-1

> <PUBCHEM_COORDINATE_TYPE>
1
5
255

> <PUBCHEM_BONDANNOTATIONS>
20  10  6
13  22  5
21  24  5
25  26  8
25  27  8
26  28  8
27  29  8
28  30  8
29  30  8
18  3  5
14  4  6
15  5  5
23  6  5
16  7  6
17  8  5
19  9  6

$$$$
