 
  -OEChem-10192104272D

 88 94  0     1  0  0  0  0  0999 V2000
    7.2690   -2.6647    0.0000 O   0  0  0  0  0  0  0  0  0  0  0  0
    8.1457   -1.1402    0.0000 O   0  0  0  0  0  0  0  0  0  0  0  0
    9.8777    0.8598    0.0000 O   0  0  0  0  0  0  0  0  0  0  0  0
    6.8220    2.3689    0.0000 O   0  0  0  0  0  0  0  0  0  0  0  0
    4.6653   -2.1948    0.0000 O   0  0  0  0  0  0  0  0  0  0  0  0
    4.6884   -4.1947    0.0000 O   0  0  0  0  0  0  0  0  0  0  0  0
    6.4319   -5.1746    0.0000 O   0  0  0  0  0  0  0  0  0  0  0  0
    6.0546    1.8381    0.0000 O   0  0  0  0  0  0  0  0  0  0  0  0
    4.6155   -1.1643    0.0000 O   0  0  0  0  0  0  0  0  0  0  0  0
    8.1639   -5.1545    0.0000 O   0  0  0  0  0  0  0  0  0  0  0  0
    5.8628    4.9090    0.0000 O   0  0  0  0  0  0  0  0  0  0  0  0
   10.4122    1.6312    0.0000 O   0  0  0  0  0  0  0  0  0  0  0  0
    9.5137    4.6186    0.0000 O   0  0  0  0  0  0  0  0  0  0  0  0
   10.7437   -3.6402    0.0000 O   0  0  0  0  0  0  0  0  0  0  0  0
    2.8866    4.3339    0.0000 O   0  0  0  0  0  0  0  0  0  0  0  0
    2.2098    2.4520    0.0000 O   0  0  0  0  0  0  0  0  0  0  0  0
    8.1457    0.8598    0.0000 C   0  0  3  0  0  0  0  0  0  0  0  0
    6.3972   -2.1748    0.0000 C   0  0  3  0  0  0  0  0  0  0  0  0
    9.0117    0.3598    0.0000 C   0  0  3  0  0  0  0  0  0  0  0  0
    5.5371   -2.6848    0.0000 C   0  0  3  0  0  0  0  0  0  0  0  0
    7.2796    0.3598    0.0000 C   0  0  0  0  0  0  0  0  0  0  0  0
    6.3857   -1.1748    0.0000 C   0  0  0  0  0  0  0  0  0  0  0  0
    5.5486   -3.6847    0.0000 C   0  0  3  0  0  0  0  0  0  0  0  0
    9.0117   -0.6402    0.0000 C   0  0  3  0  0  0  0  0  0  0  0  0
    7.2796   -0.6402    0.0000 C   0  0  0  0  0  0  0  0  0  0  0  0
    6.4204   -4.1746    0.0000 C   0  0  3  0  0  0  0  0  0  0  0  0
    7.2806   -3.6647    0.0000 C   0  0  3  0  0  0  0  0  0  0  0  0
    8.4877    1.7995    0.0000 C   0  0  0  0  0  0  0  0  0  0  0  0
    7.8449    2.5656    0.0000 C   0  0  0  0  0  0  0  0  0  0  0  0
    6.3857    0.8945    0.0000 C   0  0  0  0  0  0  0  0  0  0  0  0
    5.4796   -0.6610    0.0000 C   0  0  0  0  0  0  0  0  0  0  0  0
    8.1869    3.5052    0.0000 C   0  0  0  0  0  0  0  0  0  0  0  0
    9.8777   -1.1402    0.0000 C   0  0  0  0  0  0  0  0  0  0  0  0
    7.5298    4.3134    0.0000 C   0  0  0  0  0  0  0  0  0  0  0  0
    8.1523   -4.1546    0.0000 C   0  0  0  0  0  0  0  0  0  0  0  0
    6.5026    4.1405    0.0000 C   0  0  3  0  0  0  0  0  0  0  0  0
    6.1463    3.1616    0.0000 C   0  0  3  0  0  0  0  0  0  0  0  0
    9.4725    1.9732    0.0000 C   0  0  0  0  0  0  0  0  0  0  0  0
    5.4796    0.3806    0.0000 C   0  0  0  0  0  0  0  0  0  0  0  0
    9.1717    3.6789    0.0000 C   0  0  0  0  0  0  0  0  0  0  0  0
    9.8145    2.9129    0.0000 C   0  0  0  0  0  0  0  0  0  0  0  0
    5.1622    2.9842    0.0000 C   0  0  0  0  0  0  0  0  0  0  0  0
    9.8777   -2.1402    0.0000 C   0  0  0  0  0  0  0  0  0  0  0  0
   10.7437   -0.6402    0.0000 C   0  0  0  0  0  0  0  0  0  0  0  0
   10.7437   -2.6402    0.0000 C   0  0  0  0  0  0  0  0  0  0  0  0
   11.6098   -1.1402    0.0000 C   0  0  0  0  0  0  0  0  0  0  0  0
    4.5164    3.7478    0.0000 C   0  0  0  0  0  0  0  0  0  0  0  0
    4.8238    2.0433    0.0000 C   0  0  0  0  0  0  0  0  0  0  0  0
   11.6098   -2.1402    0.0000 C   0  0  0  0  0  0  0  0  0  0  0  0
    3.5323    3.5703    0.0000 C   0  0  0  0  0  0  0  0  0  0  0  0
    3.8397    1.8658    0.0000 C   0  0  0  0  0  0  0  0  0  0  0  0
    3.1940    2.6294    0.0000 C   0  0  0  0  0  0  0  0  0  0  0  0
    8.7283    1.0719    0.0000 H   0  0  0  0  0  0  0  0  0  0  0  0
    6.9306   -1.8586    0.0000 H   0  0  0  0  0  0  0  0  0  0  0  0
    9.0117    0.9798    0.0000 H   0  0  0  0  0  0  0  0  0  0  0  0
    5.5299   -2.0648    0.0000 H   0  0  0  0  0  0  0  0  0  0  0  0
    5.0082   -3.3809    0.0000 H   0  0  0  0  0  0  0  0  0  0  0  0
    9.0117   -1.2602    0.0000 H   0  0  0  0  0  0  0  0  0  0  0  0
    5.8871   -4.4908    0.0000 H   0  0  0  0  0  0  0  0  0  0  0  0
    7.8139   -3.3485    0.0000 H   0  0  0  0  0  0  0  0  0  0  0  0
    8.0706    4.6165    0.0000 H   0  0  0  0  0  0  0  0  0  0  0  0
    7.3237    4.8982    0.0000 H   0  0  0  0  0  0  0  0  0  0  0  0
    8.7641   -4.2552    0.0000 H   0  0  0  0  0  0  0  0  0  0  0  0
    8.3576   -3.5696    0.0000 H   0  0  0  0  0  0  0  0  0  0  0  0
    5.8918    4.0340    0.0000 H   0  0  0  0  0  0  0  0  0  0  0  0
    5.9376    2.5778    0.0000 H   0  0  0  0  0  0  0  0  0  0  0  0
    4.9439    0.6927    0.0000 H   0  0  0  0  0  0  0  0  0  0  0  0
   10.4146    0.5498    0.0000 H   0  0  0  0  0  0  0  0  0  0  0  0
    4.1320   -2.5110    0.0000 H   0  0  0  0  0  0  0  0  0  0  0  0
    4.6956   -4.8146    0.0000 H   0  0  0  0  0  0  0  0  0  0  0  0
   10.4251    3.0205    0.0000 H   0  0  0  0  0  0  0  0  0  0  0  0
    5.8986   -5.4908    0.0000 H   0  0  0  0  0  0  0  0  0  0  0  0
    9.3408   -2.4502    0.0000 H   0  0  0  0  0  0  0  0  0  0  0  0
   10.7437   -0.0202    0.0000 H   0  0  0  0  0  0  0  0  0  0  0  0
    5.4453    1.9528    0.0000 H   0  0  0  0  0  0  0  0  0  0  0  0
    4.0774   -0.8564    0.0000 H   0  0  0  0  0  0  0  0  0  0  0  0
    8.7044   -5.4583    0.0000 H   0  0  0  0  0  0  0  0  0  0  0  0
    6.0770    5.4908    0.0000 H   0  0  0  0  0  0  0  0  0  0  0  0
   10.8871    2.0297    0.0000 H   0  0  0  0  0  0  0  0  0  0  0  0
   12.1467   -0.8302    0.0000 H   0  0  0  0  0  0  0  0  0  0  0  0
    4.7262    4.3312    0.0000 H   0  0  0  0  0  0  0  0  0  0  0  0
    5.2242    1.5699    0.0000 H   0  0  0  0  0  0  0  0  0  0  0  0
   10.1243    4.7263    0.0000 H   0  0  0  0  0  0  0  0  0  0  0  0
   12.1467   -2.4502    0.0000 H   0  0  0  0  0  0  0  0  0  0  0  0
    3.6299    1.2824    0.0000 H   0  0  0  0  0  0  0  0  0  0  0  0
   11.2807   -3.9502    0.0000 H   0  0  0  0  0  0  0  0  0  0  0  0
    2.2764    4.2239    0.0000 H   0  0  0  0  0  0  0  0  0  0  0  0
    2.0000    1.8685    0.0000 H   0  0  0  0  0  0  0  0  0  0  0  0
  1 18  1  0  0  0  0
  1 27  1  0  0  0  0
  2 24  1  0  0  0  0
  2 25  1  0  0  0  0
  3 19  1  0  0  0  0
  3 68  1  0  0  0  0
  4 29  1  0  0  0  0
  4 37  1  0  0  0  0
  5 20  1  0  0  0  0
  5 69  1  0  0  0  0
  6 23  1  0  0  0  0
  6 70  1  0  0  0  0
  7 26  1  0  0  0  0
  7 72  1  0  0  0  0
  8 30  1  0  0  0  0
  8 75  1  0  0  0  0
  9 31  1  0  0  0  0
  9 76  1  0  0  0  0
 10 35  1  0  0  0  0
 10 77  1  0  0  0  0
 11 36  1  0  0  0  0
 11 78  1  0  0  0  0
 12 38  1  0  0  0  0
 12 79  1  0  0  0  0
 13 40  1  0  0  0  0
 13 83  1  0  0  0  0
 14 45  1  0  0  0  0
 14 86  1  0  0  0  0
 15 50  1  0  0  0  0
 15 87  1  0  0  0  0
 16 52  1  0  0  0  0
 16 88  1  0  0  0  0
 17 19  1  0  0  0  0
 17 21  1  0  0  0  0
 17 28  1  0  0  0  0
 17 53  1  0  0  0  0
 18 20  1  0  0  0  0
 18 22  1  0  0  0  0
 18 54  1  0  0  0  0
 19 24  1  0  0  0  0
 19 55  1  0  0  0  0
 20 23  1  0  0  0  0
 20 56  1  0  0  0  0
 21 25  2  0  0  0  0
 21 30  1  0  0  0  0
 22 25  1  0  0  0  0
 22 31  2  0  0  0  0
 23 26  1  0  0  0  0
 23 57  1  0  0  0  0
 24 33  1  0  0  0  0
 24 58  1  0  0  0  0
 26 27  1  0  0  0  0
 26 59  1  0  0  0  0
 27 35  1  0  0  0  0
 27 60  1  0  0  0  0
 28 29  1  0  0  0  0
 28 38  2  0  0  0  0
 29 32  2  0  0  0  0
 30 39  2  0  0  0  0
 31 39  1  0  0  0  0
 32 34  1  0  0  0  0
 32 40  1  0  0  0  0
 33 43  2  0  0  0  0
 33 44  1  0  0  0  0
 34 36  1  0  0  0  0
 34 61  1  0  0  0  0
 34 62  1  0  0  0  0
 35 63  1  0  0  0  0
 35 64  1  0  0  0  0
 36 37  1  0  0  0  0
 36 65  1  0  0  0  0
 37 42  1  0  0  0  0
 37 66  1  0  0  0  0
 38 41  1  0  0  0  0
 39 67  1  0  0  0  0
 40 41  2  0  0  0  0
 41 71  1  0  0  0  0
 42 47  2  0  0  0  0
 42 48  1  0  0  0  0
 43 45  1  0  0  0  0
 43 73  1  0  0  0  0
 44 46  2  0  0  0  0
 44 74  1  0  0  0  0
 45 49  2  0  0  0  0
 46 49  1  0  0  0  0
 46 80  1  0  0  0  0
 47 50  1  0  0  0  0
 47 81  1  0  0  0  0
 48 51  2  0  0  0  0
 48 82  1  0  0  0  0
 49 84  1  0  0  0  0
 50 52  2  0  0  0  0
 51 52  1  0  0  0  0
 51 85  1  0  0  0  0
M  END
> <PUBCHEM_COMPOUND_CID>
131833185

> <PUBCHEM_COMPOUND_CANONICALIZED>
1

> <PUBCHEM_CACTVS_COMPLEXITY>
1200

> <PUBCHEM_CACTVS_HBOND_ACCEPTOR>
16

> <PUBCHEM_CACTVS_HBOND_DONOR>
13

> <PUBCHEM_CACTVS_ROTATABLE_BOND>
5

> <PUBCHEM_CACTVS_SUBSKEYS>
AAADcfB8PgAAAAAAAAAAAAAAAAAAAAAAAAA0aNGCAAAAAACRVAAAGgAACAAADRSgmAIwBoAABgCAAiBCAAACCAAgIAAIiAAGiIgNNyKGMRqCeCGlwBULuAfA4PwOoAADCAAIQABAAAYQABCAAAAAAAAAAA==

> <PUBCHEM_IUPAC_OPENEYE_NAME>
4-[2-(3,4-dihydroxyphenyl)-3,5,7-trihydroxy-chroman-8-yl]-2-(3-hydroxyphenyl)-8-[3,4,5-trihydroxy-6-(hydroxymethyl)tetrahydropyran-2-yl]chromane-3,5,7-triol

> <PUBCHEM_IUPAC_CAS_NAME>
4-[2-(3,4-dihydroxyphenyl)-3,5,7-trihydroxy-3,4-dihydro-2H-1-benzopyran-8-yl]-2-(3-hydroxyphenyl)-8-[3,4,5-trihydroxy-6-(hydroxymethyl)-2-oxanyl]-3,4-dihydro-2H-1-benzopyran-3,5,7-triol

> <PUBCHEM_IUPAC_NAME_MARKUP>
4-[2-(3,4-dihydroxyphenyl)-3,5,7-trihydroxy-3,4-dihydro-2<I>H</I>-chromen-8-yl]-2-(3-hydroxyphenyl)-8-[3,4,5-trihydroxy-6-(hydroxymethyl)oxan-2-yl]-3,4-dihydro-2<I>H</I>-chromene-3,5,7-triol

> <PUBCHEM_IUPAC_NAME>
4-[2-(3,4-dihydroxyphenyl)-3,5,7-trihydroxy-3,4-dihydro-2H-chromen-8-yl]-2-(3-hydroxyphenyl)-8-[3,4,5-trihydroxy-6-(hydroxymethyl)oxan-2-yl]-3,4-dihydro-2H-chromene-3,5,7-triol

> <PUBCHEM_IUPAC_SYSTEMATIC_NAME>
4-[2-[3,4-bis(oxidanyl)phenyl]-3,5,7-tris(oxidanyl)-3,4-dihydro-2H-chromen-8-yl]-8-[6-(hydroxymethyl)-3,4,5-tris(oxidanyl)oxan-2-yl]-2-(3-hydroxyphenyl)-3,4-dihydro-2H-chromene-3,5,7-triol

> <PUBCHEM_IUPAC_TRADITIONAL_NAME>
4-[2-(3,4-dihydroxyphenyl)-3,5,7-trihydroxy-chroman-8-yl]-2-(3-hydroxyphenyl)-8-(3,4,5-trihydroxy-6-methylol-tetrahydropyran-2-yl)chroman-3,5,7-triol

> <PUBCHEM_IUPAC_INCHI>
InChI=1S/C36H36O16/c37-11-23-28(46)30(48)31(49)36(50-23)26-21(44)10-20(43)25-27(29(47)33(52-35(25)26)12-2-1-3-14(38)6-12)24-19(42)9-17(40)15-8-22(45)32(51-34(15)24)13-4-5-16(39)18(41)7-13/h1-7,9-10,22-23,27-33,36-49H,8,11H2

> <PUBCHEM_IUPAC_INCHIKEY>
FTHZKKAMRMMDEN-UHFFFAOYSA-N

> <PUBCHEM_XLOGP3_AA>
0.3

> <PUBCHEM_EXACT_MASS>
724.20033506

> <PUBCHEM_MOLECULAR_FORMULA>
C36H36O16

> <PUBCHEM_MOLECULAR_WEIGHT>
724.7

> <PUBCHEM_OPENEYE_CAN_SMILES>
C1C(C(OC2=C1C(=CC(=C2C3C(C(OC4=C3C(=CC(=C4C5C(C(C(C(O5)CO)O)O)O)O)O)C6=CC(=CC=C6)O)O)O)O)C7=CC(=C(C=C7)O)O)O

> <PUBCHEM_OPENEYE_ISO_SMILES>
C1C(C(OC2=C1C(=CC(=C2C3C(C(OC4=C3C(=CC(=C4C5C(C(C(C(O5)CO)O)O)O)O)O)C6=CC(=CC=C6)O)O)O)O)C7=CC(=C(C=C7)O)O)O

> <PUBCHEM_CACTVS_TPSA>
291

> <PUBCHEM_MONOISOTOPIC_WEIGHT>
724.20033506

> <PUBCHEM_TOTAL_CHARGE>
0

> <PUBCHEM_HEAVY_ATOM_COUNT>
52

> <PUBCHEM_ATOM_DEF_STEREO_COUNT>
0

> <PUBCHEM_ATOM_UDEF_STEREO_COUNT>
10

> <PUBCHEM_BOND_DEF_STEREO_COUNT>
0

> <PUBCHEM_BOND_UDEF_STEREO_COUNT>
0

> <PUBCHEM_ISOTOPIC_ATOM_COUNT>
0

> <PUBCHEM_COMPONENT_COUNT>
1

> <PUBCHEM_CACTVS_TAUTO_COUNT>
-1

> <PUBCHEM_COORDINATE_TYPE>
1
5
255

> <PUBCHEM_BONDANNOTATIONS>
36  11  3
17  28  3
18  22  3
21  25  8
21  30  8
22  25  8
22  31  8
24  33  3
27  35  3
28  29  8
28  38  8
29  32  8
19  3  3
30  39  8
31  39  8
32  40  8
33  43  8
33  44  8
37  42  3
38  41  8
40  41  8
42  47  8
42  48  8
43  45  8
44  46  8
45  49  8
46  49  8
47  50  8
48  51  8
20  5  3
50  52  8
51  52  8
23  6  3
26  7  3

$$$$
