 
  -OEChem-10192104202D

 71 72  0     1  0  0  0  0  0999 V2000
    6.0010   -5.4050    0.0000 O   0  0  0  0  0  0  0  0  0  0  0  0
    7.7331   -3.4050    0.0000 O   0  0  0  0  0  0  0  0  0  0  0  0
    5.1350   -3.9050    0.0000 O   0  0  0  0  0  0  0  0  0  0  0  0
    7.7331   -6.4050    0.0000 O   0  0  0  0  0  0  0  0  0  0  0  0
    9.4651   -3.4050    0.0000 O   0  0  0  0  0  0  0  0  0  0  0  0
    4.2690   -6.4050    0.0000 O   0  0  0  0  0  0  0  0  0  0  0  0
    9.4651   -5.4050    0.0000 O   0  0  0  0  0  0  0  0  0  0  0  0
    2.5369   -5.4050    0.0000 O   0  0  0  0  0  0  0  0  0  0  0  0
    2.5369   -3.4050    0.0000 O   0  0  0  0  0  0  0  0  0  0  0  0
    6.0010   -2.4050    0.0000 O   0  0  0  0  0  0  0  0  0  0  0  0
    5.1350   -1.9050    0.0000 O   0  0  0  0  0  0  0  0  0  0  0  0
   10.3312   -0.9050    0.0000 O   0  0  0  0  0  0  0  0  0  0  0  0
   12.0632    1.0950    0.0000 O   0  0  0  0  0  0  0  0  0  0  0  0
   12.9292    3.5950    0.0000 O   0  0  0  0  0  0  0  0  0  0  0  0
    6.8671   -4.9050    0.0000 C   0  0  1  0  0  0  0  0  0  0  0  0
    7.7331   -5.4050    0.0000 C   0  0  3  0  0  0  0  0  0  0  0  0
    6.8671   -3.9050    0.0000 C   0  0  3  0  0  0  0  0  0  0  0  0
    5.1350   -4.9050    0.0000 C   0  0  2  0  0  0  0  0  0  0  0  0
    4.2690   -5.4050    0.0000 C   0  0  2  0  0  0  0  0  0  0  0  0
    8.5991   -4.9050    0.0000 C   0  0  1  0  0  0  0  0  0  0  0  0
    3.4030   -4.9050    0.0000 C   0  0  3  0  0  0  0  0  0  0  0  0
    3.4030   -3.9050    0.0000 C   0  0  2  0  0  0  0  0  0  0  0  0
    4.2690   -3.4050    0.0000 C   0  0  3  0  0  0  0  0  0  0  0  0
    8.5991   -3.9050    0.0000 C   0  0  1  0  0  0  0  0  0  0  0  0
    6.0010   -3.4050    0.0000 C   0  0  0  0  0  0  0  0  0  0  0  0
    4.2690   -2.4050    0.0000 C   0  0  0  0  0  0  0  0  0  0  0  0
    9.4651   -2.4050    0.0000 C   0  0  0  0  0  0  0  0  0  0  0  0
   10.3312   -1.9050    0.0000 C   0  0  0  0  0  0  0  0  0  0  0  0
   11.1972   -0.4050    0.0000 C   0  0  0  0  0  0  0  0  0  0  0  0
   11.1972    0.5950    0.0000 C   0  0  0  0  0  0  0  0  0  0  0  0
   12.0632    2.0950    0.0000 C   0  0  0  0  0  0  0  0  0  0  0  0
   12.9292    2.5950    0.0000 C   0  0  0  0  0  0  0  0  0  0  0  0
   13.7953    4.0950    0.0000 C   0  0  0  0  0  0  0  0  0  0  0  0
   13.7953    5.0950    0.0000 C   0  0  0  0  0  0  0  0  0  0  0  0
   13.7953    6.0950    0.0000 C   0  0  0  0  0  0  0  0  0  0  0  0
    6.3301   -4.5950    0.0000 H   0  0  0  0  0  0  0  0  0  0  0  0
    7.1962   -5.7150    0.0000 H   0  0  0  0  0  0  0  0  0  0  0  0
    6.8671   -3.2850    0.0000 H   0  0  0  0  0  0  0  0  0  0  0  0
    5.1350   -5.5250    0.0000 H   0  0  0  0  0  0  0  0  0  0  0  0
    3.7320   -5.7150    0.0000 H   0  0  0  0  0  0  0  0  0  0  0  0
    8.5991   -5.5250    0.0000 H   0  0  0  0  0  0  0  0  0  0  0  0
    2.8660   -4.5950    0.0000 H   0  0  0  0  0  0  0  0  0  0  0  0
    3.4030   -3.2850    0.0000 H   0  0  0  0  0  0  0  0  0  0  0  0
    4.8059   -3.0950    0.0000 H   0  0  0  0  0  0  0  0  0  0  0  0
    8.5991   -3.2850    0.0000 H   0  0  0  0  0  0  0  0  0  0  0  0
    5.3905   -3.2973    0.0000 H   0  0  0  0  0  0  0  0  0  0  0  0
    5.7890   -3.9876    0.0000 H   0  0  0  0  0  0  0  0  0  0  0  0
    4.0569   -1.8224    0.0000 H   0  0  0  0  0  0  0  0  0  0  0  0
    3.6584   -2.5127    0.0000 H   0  0  0  0  0  0  0  0  0  0  0  0
    8.2700   -6.7150    0.0000 H   0  0  0  0  0  0  0  0  0  0  0  0
    3.7320   -6.7150    0.0000 H   0  0  0  0  0  0  0  0  0  0  0  0
   10.0021   -5.0950    0.0000 H   0  0  0  0  0  0  0  0  0  0  0  0
    2.0000   -5.0950    0.0000 H   0  0  0  0  0  0  0  0  0  0  0  0
    2.5369   -2.7850    0.0000 H   0  0  0  0  0  0  0  0  0  0  0  0
    9.2531   -1.8224    0.0000 H   0  0  0  0  0  0  0  0  0  0  0  0
    8.8546   -2.5127    0.0000 H   0  0  0  0  0  0  0  0  0  0  0  0
    6.5380   -2.0950    0.0000 H   0  0  0  0  0  0  0  0  0  0  0  0
    5.1350   -1.2850    0.0000 H   0  0  0  0  0  0  0  0  0  0  0  0
   10.5432   -2.4876    0.0000 H   0  0  0  0  0  0  0  0  0  0  0  0
   10.9417   -1.7973    0.0000 H   0  0  0  0  0  0  0  0  0  0  0  0
   11.4092   -0.9876    0.0000 H   0  0  0  0  0  0  0  0  0  0  0  0
   11.8078   -0.2973    0.0000 H   0  0  0  0  0  0  0  0  0  0  0  0
   10.9851    1.1776    0.0000 H   0  0  0  0  0  0  0  0  0  0  0  0
   10.5866    0.4873    0.0000 H   0  0  0  0  0  0  0  0  0  0  0  0
   11.8512    2.6776    0.0000 H   0  0  0  0  0  0  0  0  0  0  0  0
   11.4526    1.9873    0.0000 H   0  0  0  0  0  0  0  0  0  0  0  0
   13.1413    2.0124    0.0000 H   0  0  0  0  0  0  0  0  0  0  0  0
   13.5398    2.7027    0.0000 H   0  0  0  0  0  0  0  0  0  0  0  0
   14.0073    3.5124    0.0000 H   0  0  0  0  0  0  0  0  0  0  0  0
   14.4058    4.2027    0.0000 H   0  0  0  0  0  0  0  0  0  0  0  0
   13.7953    6.7150    0.0000 H   0  0  0  0  0  0  0  0  0  0  0  0
 15  1  1  6  0  0  0
 18  1  1  1  0  0  0
  2 17  1  0  0  0  0
  2 24  1  0  0  0  0
  3 18  1  0  0  0  0
  3 23  1  0  0  0  0
  4 16  1  0  0  0  0
  4 50  1  0  0  0  0
 24  5  1  1  0  0  0
  5 27  1  0  0  0  0
 19  6  1  1  0  0  0
  6 51  1  0  0  0  0
 20  7  1  1  0  0  0
  7 52  1  0  0  0  0
  8 21  1  0  0  0  0
  8 53  1  0  0  0  0
 22  9  1  1  0  0  0
  9 54  1  0  0  0  0
 10 25  1  0  0  0  0
 10 57  1  0  0  0  0
 11 26  1  0  0  0  0
 11 58  1  0  0  0  0
 12 28  1  0  0  0  0
 12 29  1  0  0  0  0
 13 30  1  0  0  0  0
 13 31  1  0  0  0  0
 14 32  1  0  0  0  0
 14 33  1  0  0  0  0
 15 16  1  0  0  0  0
 15 17  1  0  0  0  0
 15 36  1  0  0  0  0
 16 20  1  0  0  0  0
 16 37  1  0  0  0  0
 17 25  1  0  0  0  0
 17 38  1  0  0  0  0
 18 19  1  0  0  0  0
 18 39  1  0  0  0  0
 19 21  1  0  0  0  0
 19 40  1  0  0  0  0
 20 24  1  0  0  0  0
 20 41  1  0  0  0  0
 21 22  1  0  0  0  0
 21 42  1  0  0  0  0
 22 23  1  0  0  0  0
 22 43  1  0  0  0  0
 23 26  1  0  0  0  0
 23 44  1  0  0  0  0
 24 45  1  0  0  0  0
 25 46  1  0  0  0  0
 25 47  1  0  0  0  0
 26 48  1  0  0  0  0
 26 49  1  0  0  0  0
 27 28  1  0  0  0  0
 27 55  1  0  0  0  0
 27 56  1  0  0  0  0
 28 59  1  0  0  0  0
 28 60  1  0  0  0  0
 29 30  1  0  0  0  0
 29 61  1  0  0  0  0
 29 62  1  0  0  0  0
 30 63  1  0  0  0  0
 30 64  1  0  0  0  0
 31 32  1  0  0  0  0
 31 65  1  0  0  0  0
 31 66  1  0  0  0  0
 32 67  1  0  0  0  0
 32 68  1  0  0  0  0
 33 34  1  0  0  0  0
 33 69  1  0  0  0  0
 33 70  1  0  0  0  0
 34 35  3  0  0  0  0
 35 71  1  0  0  0  0
M  END
> <PUBCHEM_COMPOUND_CID>
75534921

> <PUBCHEM_COMPOUND_CANONICALIZED>
1

> <PUBCHEM_CACTVS_COMPLEXITY>
628

> <PUBCHEM_CACTVS_HBOND_ACCEPTOR>
14

> <PUBCHEM_CACTVS_HBOND_DONOR>
7

> <PUBCHEM_CACTVS_ROTATABLE_BOND>
15

> <PUBCHEM_CACTVS_SUBSKEYS>
AAADcfB4PAAAAAAAAAAAAAAAAAAAAAAAAAAkSAAAAAAAAAAAAAAAGgAACAAACBSwgAMACAAABgBAGAAAAAAAAAAAAAAAAAAAAAAREAIAAAAiQAAFAAAHAAHAYAwAAAAAAAAAAAAAAAAAAAAAAAAAAAAAAA==

> <PUBCHEM_IUPAC_OPENEYE_NAME>
(2S,3S,5R)-2-[(3S,5S,6R)-4,5-dihydroxy-2-(hydroxymethyl)-6-[2-[2-(2-prop-2-ynoxyethoxy)ethoxy]ethoxy]tetrahydropyran-3-yl]oxy-6-(hydroxymethyl)tetrahydropyran-3,4,5-triol

> <PUBCHEM_IUPAC_CAS_NAME>
(2S,3S,5R)-2-[[(3S,5S,6R)-4,5-dihydroxy-2-(hydroxymethyl)-6-[2-[2-(2-prop-2-ynoxyethoxy)ethoxy]ethoxy]-3-oxanyl]oxy]-6-(hydroxymethyl)oxane-3,4,5-triol

> <PUBCHEM_IUPAC_NAME_MARKUP>
(2<I>S</I>,3<I>S</I>,5<I>R</I>)-2-[(3<I>S</I>,5<I>S</I>,6<I>R</I>)-4,5-dihydroxy-2-(hydroxymethyl)-6-[2-[2-(2-prop-2-ynoxyethoxy)ethoxy]ethoxy]oxan-3-yl]oxy-6-(hydroxymethyl)oxane-3,4,5-triol

> <PUBCHEM_IUPAC_NAME>
(2S,3S,5R)-2-[(3S,5S,6R)-4,5-dihydroxy-2-(hydroxymethyl)-6-[2-[2-(2-prop-2-ynoxyethoxy)ethoxy]ethoxy]oxan-3-yl]oxy-6-(hydroxymethyl)oxane-3,4,5-triol

> <PUBCHEM_IUPAC_SYSTEMATIC_NAME>
(3R,5S,6S)-2-(hydroxymethyl)-6-[(3S,5S,6R)-2-(hydroxymethyl)-4,5-bis(oxidanyl)-6-[2-[2-(2-prop-2-ynoxyethoxy)ethoxy]ethoxy]oxan-3-yl]oxy-oxane-3,4,5-triol

> <PUBCHEM_IUPAC_TRADITIONAL_NAME>
(2S,3S,5R)-2-[(3S,5S,6R)-4,5-dihydroxy-2-methylol-6-[2-[2-(2-propargyloxyethoxy)ethoxy]ethoxy]tetrahydropyran-3-yl]oxy-6-methylol-tetrahydropyran-3,4,5-triol

> <PUBCHEM_IUPAC_INCHI>
InChI=1S/C21H36O14/c1-2-3-29-4-5-30-6-7-31-8-9-32-20-18(28)16(26)19(13(11-23)34-20)35-21-17(27)15(25)14(24)12(10-22)33-21/h1,12-28H,3-11H2/t12?,13?,14-,15?,16?,17-,18-,19+,20+,21-/m0/s1

> <PUBCHEM_IUPAC_INCHIKEY>
FXUAXSGLDBQKTL-ZDWNXSRGSA-N

> <PUBCHEM_XLOGP3_AA>
-4.5

> <PUBCHEM_EXACT_MASS>
512.21050582

> <PUBCHEM_MOLECULAR_FORMULA>
C21H36O14

> <PUBCHEM_MOLECULAR_WEIGHT>
512.5

> <PUBCHEM_OPENEYE_CAN_SMILES>
C#CCOCCOCCOCCOC1C(C(C(C(O1)CO)OC2C(C(C(C(O2)CO)O)O)O)O)O

> <PUBCHEM_OPENEYE_ISO_SMILES>
C#CCOCCOCCOCCO[C@H]1[C@H](C([C@@H](C(O1)CO)O[C@H]2[C@H](C([C@H](C(O2)CO)O)O)O)O)O

> <PUBCHEM_CACTVS_TPSA>
206

> <PUBCHEM_MONOISOTOPIC_WEIGHT>
512.21050582

> <PUBCHEM_TOTAL_CHARGE>
0

> <PUBCHEM_HEAVY_ATOM_COUNT>
35

> <PUBCHEM_ATOM_DEF_STEREO_COUNT>
6

> <PUBCHEM_ATOM_UDEF_STEREO_COUNT>
4

> <PUBCHEM_BOND_DEF_STEREO_COUNT>
0

> <PUBCHEM_BOND_UDEF_STEREO_COUNT>
0

> <PUBCHEM_ISOTOPIC_ATOM_COUNT>
0

> <PUBCHEM_COMPONENT_COUNT>
1

> <PUBCHEM_CACTVS_TAUTO_COUNT>
-1

> <PUBCHEM_COORDINATE_TYPE>
1
5
255

> <PUBCHEM_BONDANNOTATIONS>
15  1  6
18  1  5
17  25  3
23  26  3
16  4  3
24  5  5
19  6  5
20  7  5
21  8  3
22  9  5

$$$$
