 
  -OEChem-10192104082D

119119  0     1  0  0  0  0  0999 V2000
    9.8230    0.7177    0.0000 O   0  0  0  0  0  0  0  0  0  0  0  0
   11.5023   -2.3310    0.0000 O   0  0  0  0  0  0  0  0  0  0  0  0
    8.8991   -5.1587    0.0000 O   0  0  0  0  0  0  0  0  0  0  0  0
    5.1080   -4.5261    0.0000 O   0  0  0  0  0  0  0  0  0  0  0  0
    9.5098    2.2114    0.0000 O   0  0  0  0  0  0  0  0  0  0  0  0
    3.5641   -1.0063    0.0000 O   0  0  0  0  0  0  0  0  0  0  0  0
    3.6630    1.0964    0.0000 O   0  0  0  0  0  0  0  0  0  0  0  0
    5.6663    2.2114    0.0000 O   0  0  0  0  0  0  0  0  0  0  0  0
   10.1312   -3.0012    0.0000 N   0  0  0  0  0  0  0  0  0  0  0  0
    7.5880   -4.3775    0.0000 N   0  0  0  0  0  0  0  0  0  0  0  0
    5.0449   -3.0012    0.0000 N   0  0  0  0  0  0  0  0  0  0  0  0
    4.8061   -0.1195    0.0000 N   0  0  0  0  0  0  0  0  0  0  0  0
    7.0880    1.6566    0.0000 N   0  0  0  0  0  0  0  0  0  0  0  0
    2.4323   -3.5387    0.0000 N   0  0  0  0  0  0  0  0  0  0  0  0
    9.4539   -3.7370    0.0000 C   0  0  1  0  0  0  0  0  0  0  0  0
   10.6154   -1.0889    0.0000 C   0  0  2  0  0  0  0  0  0  0  0  0
   10.3699   -0.1195    0.0000 C   0  0  1  0  0  0  0  0  0  0  0  0
   10.0681   -4.5261    0.0000 C   0  0  0  0  0  0  0  0  0  0  0  0
   11.2857    0.2822    0.0000 C   0  0  0  0  0  0  0  0  0  0  0  0
    6.6017   -4.2129    0.0000 C   0  0  1  0  0  0  0  0  0  0  0  0
   10.5329   -2.0855    0.0000 C   0  0  0  0  0  0  0  0  0  0  0  0
   11.3957    1.2761    0.0000 C   0  0  0  0  0  0  0  0  0  0  0  0
   10.9946   -4.9024    0.0000 C   0  0  0  0  0  0  0  0  0  0  0  0
    6.2770   -5.1587    0.0000 C   0  0  2  0  0  0  0  0  0  0  0  0
    8.5744   -4.2129    0.0000 C   0  0  0  0  0  0  0  0  0  0  0  0
   12.3115    1.6778    0.0000 C   0  0  0  0  0  0  0  0  0  0  0  0
   11.6120   -1.0063    0.0000 C   0  0  0  0  0  0  0  0  0  0  0  0
   12.4215    2.6718    0.0000 C   0  0  0  0  0  0  0  0  0  0  0  0
    6.9337   -5.9128    0.0000 C   0  0  0  0  0  0  0  0  0  0  0  0
   10.9683   -3.5482    0.0000 C   0  0  0  0  0  0  0  0  0  0  0  0
   13.3373    3.0735    0.0000 C   0  0  0  0  0  0  0  0  0  0  0  0
    5.7222   -3.7370    0.0000 C   0  0  0  0  0  0  0  0  0  0  0  0
    5.2955   -5.3504    0.0000 C   0  0  0  0  0  0  0  0  0  0  0  0
   11.1319   -5.8929    0.0000 C   0  0  0  0  0  0  0  0  0  0  0  0
   11.7837   -4.2882    0.0000 C   0  0  0  0  0  0  0  0  0  0  0  0
   13.4473    4.0674    0.0000 C   0  0  0  0  0  0  0  0  0  0  0  0
    4.6432   -2.0855    0.0000 C   0  0  1  0  0  0  0  0  0  0  0  0
   14.3631    4.4691    0.0000 C   0  0  0  0  0  0  0  0  0  0  0  0
    6.6090   -6.8586    0.0000 C   0  0  0  0  0  0  0  0  0  0  0  0
    9.0339    1.3319    0.0000 C   0  0  0  0  0  0  0  0  0  0  0  0
    3.6738   -2.3310    0.0000 C   0  0  0  0  0  0  0  0  0  0  0  0
   14.4731    5.4630    0.0000 C   0  0  0  0  0  0  0  0  0  0  0  0
    4.5606   -1.0889    0.0000 C   0  0  0  0  0  0  0  0  0  0  0  0
    5.3531    0.7177    0.0000 C   0  0  1  0  0  0  0  0  0  0  0  0
    8.0880    1.6566    0.0000 C   0  0  0  0  0  0  0  0  0  0  0  0
    3.4017   -3.2932    0.0000 C   0  0  0  0  0  0  0  0  0  0  0  0
   15.3888    5.8647    0.0000 C   0  0  0  0  0  0  0  0  0  0  0  0
    4.6174    1.3950    0.0000 C   0  0  2  0  0  0  0  0  0  0  0  0
    6.1422    1.3319    0.0000 C   0  0  0  0  0  0  0  0  0  0  0  0
   15.4989    6.8586    0.0000 C   0  0  0  0  0  0  0  0  0  0  0  0
    4.8360    2.3708    0.0000 C   0  0  0  0  0  0  0  0  0  0  0  0
   10.0733   -3.7626    0.0000 H   0  0  0  0  0  0  0  0  0  0  0  0
   10.9757   -0.5843    0.0000 H   0  0  0  0  0  0  0  0  0  0  0  0
   10.5469    0.4747    0.0000 H   0  0  0  0  0  0  0  0  0  0  0  0
    9.4781   -4.7166    0.0000 H   0  0  0  0  0  0  0  0  0  0  0  0
   10.4421   -4.0316    0.0000 H   0  0  0  0  0  0  0  0  0  0  0  0
   11.4324   -0.3202    0.0000 H   0  0  0  0  0  0  0  0  0  0  0  0
   11.9044    0.3221    0.0000 H   0  0  0  0  0  0  0  0  0  0  0  0
    7.0368   -4.9431    0.0000 H   0  0  0  0  0  0  0  0  0  0  0  0
   11.2491    1.8786    0.0000 H   0  0  0  0  0  0  0  0  0  0  0  0
   10.7770    1.2363    0.0000 H   0  0  0  0  0  0  0  0  0  0  0  0
   11.5690   -5.1357    0.0000 H   0  0  0  0  0  0  0  0  0  0  0  0
    6.0757   -5.7451    0.0000 H   0  0  0  0  0  0  0  0  0  0  0  0
   12.4582    1.0754    0.0000 H   0  0  0  0  0  0  0  0  0  0  0  0
   12.9302    1.7177    0.0000 H   0  0  0  0  0  0  0  0  0  0  0  0
    7.5880   -4.9975    0.0000 H   0  0  0  0  0  0  0  0  0  0  0  0
   11.6632   -1.6242    0.0000 H   0  0  0  0  0  0  0  0  0  0  0  0
   12.2299   -0.9551    0.0000 H   0  0  0  0  0  0  0  0  0  0  0  0
   11.5608   -0.3884    0.0000 H   0  0  0  0  0  0  0  0  0  0  0  0
   12.2748    3.2742    0.0000 H   0  0  0  0  0  0  0  0  0  0  0  0
   11.8028    2.6319    0.0000 H   0  0  0  0  0  0  0  0  0  0  0  0
    7.4763   -6.2129    0.0000 H   0  0  0  0  0  0  0  0  0  0  0  0
    7.3235   -5.4306    0.0000 H   0  0  0  0  0  0  0  0  0  0  0  0
   10.6292   -4.0672    0.0000 H   0  0  0  0  0  0  0  0  0  0  0  0
   11.4874   -3.8873    0.0000 H   0  0  0  0  0  0  0  0  0  0  0  0
   11.3074   -3.0291    0.0000 H   0  0  0  0  0  0  0  0  0  0  0  0
   13.4840    2.4711    0.0000 H   0  0  0  0  0  0  0  0  0  0  0  0
   13.9560    3.1133    0.0000 H   0  0  0  0  0  0  0  0  0  0  0  0
    5.1767   -4.7419    0.0000 H   0  0  0  0  0  0  0  0  0  0  0  0
    4.6870   -5.4693    0.0000 H   0  0  0  0  0  0  0  0  0  0  0  0
    5.4144   -5.9589    0.0000 H   0  0  0  0  0  0  0  0  0  0  0  0
   10.5178   -5.9781    0.0000 H   0  0  0  0  0  0  0  0  0  0  0  0
   11.2171   -6.5071    0.0000 H   0  0  0  0  0  0  0  0  0  0  0  0
   11.7461   -5.8078    0.0000 H   0  0  0  0  0  0  0  0  0  0  0  0
   12.1645   -4.7775    0.0000 H   0  0  0  0  0  0  0  0  0  0  0  0
   12.2730   -3.9074    0.0000 H   0  0  0  0  0  0  0  0  0  0  0  0
   11.4029   -3.7989    0.0000 H   0  0  0  0  0  0  0  0  0  0  0  0
   13.3006    4.6698    0.0000 H   0  0  0  0  0  0  0  0  0  0  0  0
   12.8286    4.0276    0.0000 H   0  0  0  0  0  0  0  0  0  0  0  0
    4.3709   -2.6425    0.0000 H   0  0  0  0  0  0  0  0  0  0  0  0
    4.5259   -3.3404    0.0000 H   0  0  0  0  0  0  0  0  0  0  0  0
   14.5097    3.8667    0.0000 H   0  0  0  0  0  0  0  0  0  0  0  0
   14.9818    4.5089    0.0000 H   0  0  0  0  0  0  0  0  0  0  0  0
    6.0226   -6.6573    0.0000 H   0  0  0  0  0  0  0  0  0  0  0  0
    6.4077   -7.4451    0.0000 H   0  0  0  0  0  0  0  0  0  0  0  0
    7.1954   -7.0600    0.0000 H   0  0  0  0  0  0  0  0  0  0  0  0
    3.6283   -1.7126    0.0000 H   0  0  0  0  0  0  0  0  0  0  0  0
    3.0570   -2.2684    0.0000 H   0  0  0  0  0  0  0  0  0  0  0  0
   14.3264    6.0654    0.0000 H   0  0  0  0  0  0  0  0  0  0  0  0
   13.8544    5.4232    0.0000 H   0  0  0  0  0  0  0  0  0  0  0  0
    4.5096    0.6125    0.0000 H   0  0  0  0  0  0  0  0  0  0  0  0
    8.5079    2.1128    0.0000 H   0  0  0  0  0  0  0  0  0  0  0  0
    7.9860    1.0450    0.0000 H   0  0  0  0  0  0  0  0  0  0  0  0
    4.2383    0.1296    0.0000 H   0  0  0  0  0  0  0  0  0  0  0  0
    3.4472   -3.9116    0.0000 H   0  0  0  0  0  0  0  0  0  0  0  0
    4.0186   -3.3558    0.0000 H   0  0  0  0  0  0  0  0  0  0  0  0
   15.5355    5.2623    0.0000 H   0  0  0  0  0  0  0  0  0  0  0  0
   16.0076    5.9046    0.0000 H   0  0  0  0  0  0  0  0  0  0  0  0
    4.1612    1.8149    0.0000 H   0  0  0  0  0  0  0  0  0  0  0  0
    6.9860    2.2681    0.0000 H   0  0  0  0  0  0  0  0  0  0  0  0
   16.1151    6.7904    0.0000 H   0  0  0  0  0  0  0  0  0  0  0  0
   15.5671    7.4749    0.0000 H   0  0  0  0  0  0  0  0  0  0  0  0
   14.8826    6.9269    0.0000 H   0  0  0  0  0  0  0  0  0  0  0  0
    5.4410    2.2352    0.0000 H   0  0  0  0  0  0  0  0  0  0  0  0
    4.9716    2.9758    0.0000 H   0  0  0  0  0  0  0  0  0  0  0  0
    4.2310    2.5064    0.0000 H   0  0  0  0  0  0  0  0  0  0  0  0
    2.2636   -4.1353    0.0000 H   0  0  0  0  0  0  0  0  0  0  0  0
    2.0000   -3.0943    0.0000 H   0  0  0  0  0  0  0  0  0  0  0  0
    3.2068    1.5164    0.0000 H   0  0  0  0  0  0  0  0  0  0  0  0
  1 17  1  0  0  0  0
  1 40  1  0  0  0  0
  2 21  2  0  0  0  0
  3 25  2  0  0  0  0
  4 32  2  0  0  0  0
  5 40  2  0  0  0  0
  6 43  2  0  0  0  0
 48  7  1  1  0  0  0
  7119  1  0  0  0  0
  8 49  2  0  0  0  0
  9 15  1  0  0  0  0
  9 21  1  0  0  0  0
  9 30  1  0  0  0  0
 10 20  1  0  0  0  0
 10 25  1  0  0  0  0
 10 66  1  0  0  0  0
 11 32  1  0  0  0  0
 11 37  1  0  0  0  0
 11 91  1  0  0  0  0
 12 43  1  0  0  0  0
 12 44  1  0  0  0  0
 12104  1  0  0  0  0
 13 45  1  0  0  0  0
 13 49  1  0  0  0  0
 13110  1  0  0  0  0
 14 46  1  0  0  0  0
 14117  1  0  0  0  0
 14118  1  0  0  0  0
 15 18  1  1  0  0  0
 15 25  1  0  0  0  0
 15 52  1  0  0  0  0
 16 17  1  0  0  0  0
 16 21  1  0  0  0  0
 16 27  1  1  0  0  0
 16 53  1  0  0  0  0
 17 19  1  6  0  0  0
 17 54  1  0  0  0  0
 18 23  1  0  0  0  0
 18 55  1  0  0  0  0
 18 56  1  0  0  0  0
 19 22  1  0  0  0  0
 19 57  1  0  0  0  0
 19 58  1  0  0  0  0
 20 24  1  0  0  0  0
 20 32  1  0  0  0  0
 20 59  1  6  0  0  0
 22 26  1  0  0  0  0
 22 60  1  0  0  0  0
 22 61  1  0  0  0  0
 23 34  1  0  0  0  0
 23 35  1  0  0  0  0
 23 62  1  0  0  0  0
 24 29  1  0  0  0  0
 24 33  1  6  0  0  0
 24 63  1  0  0  0  0
 26 28  1  0  0  0  0
 26 64  1  0  0  0  0
 26 65  1  0  0  0  0
 27 67  1  0  0  0  0
 27 68  1  0  0  0  0
 27 69  1  0  0  0  0
 28 31  1  0  0  0  0
 28 70  1  0  0  0  0
 28 71  1  0  0  0  0
 29 39  1  0  0  0  0
 29 72  1  0  0  0  0
 29 73  1  0  0  0  0
 30 74  1  0  0  0  0
 30 75  1  0  0  0  0
 30 76  1  0  0  0  0
 31 36  1  0  0  0  0
 31 77  1  0  0  0  0
 31 78  1  0  0  0  0
 33 79  1  0  0  0  0
 33 80  1  0  0  0  0
 33 81  1  0  0  0  0
 34 82  1  0  0  0  0
 34 83  1  0  0  0  0
 34 84  1  0  0  0  0
 35 85  1  0  0  0  0
 35 86  1  0  0  0  0
 35 87  1  0  0  0  0
 36 38  1  0  0  0  0
 36 88  1  0  0  0  0
 36 89  1  0  0  0  0
 37 41  1  1  0  0  0
 37 43  1  0  0  0  0
 37 90  1  0  0  0  0
 38 42  1  0  0  0  0
 38 92  1  0  0  0  0
 38 93  1  0  0  0  0
 39 94  1  0  0  0  0
 39 95  1  0  0  0  0
 39 96  1  0  0  0  0
 40 45  1  0  0  0  0
 41 46  1  0  0  0  0
 41 97  1  0  0  0  0
 41 98  1  0  0  0  0
 42 47  1  0  0  0  0
 42 99  1  0  0  0  0
 42100  1  0  0  0  0
 44 48  1  0  0  0  0
 44 49  1  0  0  0  0
 44101  1  6  0  0  0
 45102  1  0  0  0  0
 45103  1  0  0  0  0
 46105  1  0  0  0  0
 46106  1  0  0  0  0
 47 50  1  0  0  0  0
 47107  1  0  0  0  0
 47108  1  0  0  0  0
 48 51  1  0  0  0  0
 48109  1  0  0  0  0
 50111  1  0  0  0  0
 50112  1  0  0  0  0
 50113  1  0  0  0  0
 51114  1  0  0  0  0
 51115  1  0  0  0  0
 51116  1  0  0  0  0
M  END
> <PUBCHEM_COMPOUND_CID>
138478932

> <PUBCHEM_COMPOUND_CANONICALIZED>
1

> <PUBCHEM_CACTVS_COMPLEXITY>
1120

> <PUBCHEM_CACTVS_HBOND_ACCEPTOR>
9

> <PUBCHEM_CACTVS_HBOND_DONOR>
6

> <PUBCHEM_CACTVS_ROTATABLE_BOND>
16

> <PUBCHEM_CACTVS_SUBSKEYS>
AAADcfB/vAAAAAAAAAAAAAAAAAAAAAAAAAAAAAAAAAAAAAAAAAAAHgAQCAAADTzhgAYCCAPABgAIAAGQGAAAAAAAAAAAAIGIAAACUBYAwCAXQAAGNgCQAAGcyOCOAAAAAAAAAAAAAAAAAAAAAAAAAAAAAA==

> <PUBCHEM_IUPAC_OPENEYE_NAME>
(6S,9S,12S,15S,18R,19R)-9-(2-aminoethyl)-19-decyl-6-[(1S)-1-hydroxyethyl]-15-isobutyl-16,18-dimethyl-12-[(1S)-1-methylpropyl]-1-oxa-4,7,10,13,16-pentazacyclononadecane-2,5,8,11,14,17-hexone

> <PUBCHEM_IUPAC_CAS_NAME>
(6S,9S,12S,15S,18R,19R)-9-(2-aminoethyl)-12-[(2S)-butan-2-yl]-19-decyl-6-[(1S)-1-hydroxyethyl]-16,18-dimethyl-15-(2-methylpropyl)-1-oxa-4,7,10,13,16-pentazacyclononadecane-2,5,8,11,14,17-hexone

> <PUBCHEM_IUPAC_NAME_MARKUP>
(6<I>S</I>,9<I>S</I>,12<I>S</I>,15<I>S</I>,18<I>R</I>,19<I>R</I>)-9-(2-aminoethyl)-12-[(2<I>S</I>)-butan-2-yl]-19-decyl-6-[(1<I>S</I>)-1-hydroxyethyl]-16,18-dimethyl-15-(2-methylpropyl)-1-oxa-4,7,10,13,16-pentazacyclononadecane-2,5,8,11,14,17-hexone

> <PUBCHEM_IUPAC_NAME>
(6S,9S,12S,15S,18R,19R)-9-(2-aminoethyl)-12-[(2S)-butan-2-yl]-19-decyl-6-[(1S)-1-hydroxyethyl]-16,18-dimethyl-15-(2-methylpropyl)-1-oxa-4,7,10,13,16-pentazacyclononadecane-2,5,8,11,14,17-hexone

> <PUBCHEM_IUPAC_SYSTEMATIC_NAME>
(6S,9S,12S,15S,18R,19R)-9-(2-azanylethyl)-12-[(2S)-butan-2-yl]-19-decyl-16,18-dimethyl-15-(2-methylpropyl)-6-[(1S)-1-oxidanylethyl]-1-oxa-4,7,10,13,16-pentazacyclononadecane-2,5,8,11,14,17-hexone

> <PUBCHEM_IUPAC_TRADITIONAL_NAME>
(6S,9S,12S,15S,18R,19R)-9-(2-aminoethyl)-19-decyl-6-[(1S)-1-hydroxyethyl]-15-isobutyl-16,18-dimethyl-12-[(1S)-1-methylpropyl]-1-oxa-4,7,10,13,16-pentazacyclononadecane-2,5,8,11,14,17-triquinone

> <PUBCHEM_IUPAC_INCHI>
InChI=1S/C37H68N6O8/c1-9-11-12-13-14-15-16-17-18-29-25(6)37(50)43(8)28(21-23(3)4)34(47)41-31(24(5)10-2)36(49)40-27(19-20-38)33(46)42-32(26(7)44)35(48)39-22-30(45)51-29/h23-29,31-32,44H,9-22,38H2,1-8H3,(H,39,48)(H,40,49)(H,41,47)(H,42,46)/t24-,25+,26-,27-,28-,29+,31-,32-/m0/s1

> <PUBCHEM_IUPAC_INCHIKEY>
QFKOQRIELVWEBU-JXAVRYTJSA-N

> <PUBCHEM_XLOGP3_AA>
5.6

> <PUBCHEM_EXACT_MASS>
724.50986315

> <PUBCHEM_MOLECULAR_FORMULA>
C37H68N6O8

> <PUBCHEM_MOLECULAR_WEIGHT>
725.0

> <PUBCHEM_OPENEYE_CAN_SMILES>
CCCCCCCCCCC1C(C(=O)N(C(C(=O)NC(C(=O)NC(C(=O)NC(C(=O)NCC(=O)O1)C(C)O)CCN)C(C)CC)CC(C)C)C)C

> <PUBCHEM_OPENEYE_ISO_SMILES>
CCCCCCCCCC[C@@H]1[C@H](C(=O)N([C@H](C(=O)N[C@H](C(=O)N[C@H](C(=O)N[C@H](C(=O)NCC(=O)O1)[C@H](C)O)CCN)[C@@H](C)CC)CC(C)C)C)C

> <PUBCHEM_CACTVS_TPSA>
209

> <PUBCHEM_MONOISOTOPIC_WEIGHT>
724.50986315

> <PUBCHEM_TOTAL_CHARGE>
0

> <PUBCHEM_HEAVY_ATOM_COUNT>
51

> <PUBCHEM_ATOM_DEF_STEREO_COUNT>
8

> <PUBCHEM_ATOM_UDEF_STEREO_COUNT>
0

> <PUBCHEM_BOND_DEF_STEREO_COUNT>
0

> <PUBCHEM_BOND_UDEF_STEREO_COUNT>
0

> <PUBCHEM_ISOTOPIC_ATOM_COUNT>
0

> <PUBCHEM_COMPONENT_COUNT>
1

> <PUBCHEM_CACTVS_TAUTO_COUNT>
-1

> <PUBCHEM_COORDINATE_TYPE>
1
5
255

> <PUBCHEM_BONDANNOTATIONS>
15  18  5
16  27  5
17  19  6
20  59  6
24  33  6
37  41  5
44  101  6
48  7  5

$$$$
