 
  -OEChem-10192104422D

 59 58  0     0  0  0  0  0  0999 V2000
    2.5369    5.3607    0.0000 O   0  0  0  0  0  0  0  0  0  0  0  0
    6.0010    5.3607    0.0000 O   0  0  0  0  0  0  0  0  0  0  0  0
    4.2690    7.0928    0.0000 O   0  0  0  0  0  0  0  0  0  0  0  0
    3.4030    3.8607    0.0000 O   0  0  0  0  0  0  0  0  0  0  0  0
    5.1350    6.8607    0.0000 O   0  0  0  0  0  0  0  0  0  0  0  0
    2.7690    6.2267    0.0000 O   0  0  0  0  0  0  0  0  0  0  0  0
    4.2690    0.1645    0.0000 C   0  0  0  0  0  0  0  0  0  0  0  0
    4.7690    1.0306    0.0000 C   0  0  0  0  0  0  0  0  0  0  0  0
    4.7690   -0.7015    0.0000 C   0  0  0  0  0  0  0  0  0  0  0  0
    4.2690    1.8966    0.0000 C   0  0  0  0  0  0  0  0  0  0  0  0
    4.2690   -1.5675    0.0000 C   0  0  0  0  0  0  0  0  0  0  0  0
    4.7690    2.7626    0.0000 C   0  0  0  0  0  0  0  0  0  0  0  0
    4.7690   -2.4335    0.0000 C   0  0  0  0  0  0  0  0  0  0  0  0
    4.2690    3.6286    0.0000 C   0  0  0  0  0  0  0  0  0  0  0  0
    4.2690   -3.2996    0.0000 C   0  0  0  0  0  0  0  0  0  0  0  0
    4.7690    4.4947    0.0000 C   0  0  0  0  0  0  0  0  0  0  0  0
    4.7690   -4.1656    0.0000 C   0  0  0  0  0  0  0  0  0  0  0  0
    4.2690    5.3607    0.0000 C   0  0  0  0  0  0  0  0  0  0  0  0
    4.2690   -5.0316    0.0000 C   0  0  0  0  0  0  0  0  0  0  0  0
    4.7690   -5.8976    0.0000 C   0  0  0  0  0  0  0  0  0  0  0  0
    4.2690   -6.7637    0.0000 C   0  0  0  0  0  0  0  0  0  0  0  0
    3.4030    4.8607    0.0000 C   0  0  0  0  0  0  0  0  0  0  0  0
    5.1350    5.8607    0.0000 C   0  0  0  0  0  0  0  0  0  0  0  0
    3.7690    6.2267    0.0000 C   0  0  0  0  0  0  0  0  0  0  0  0
    4.7690   -7.6297    0.0000 C   0  0  0  0  0  0  0  0  0  0  0  0
    3.7940    0.5631    0.0000 H   0  0  0  0  0  0  0  0  0  0  0  0
    3.7940   -0.2340    0.0000 H   0  0  0  0  0  0  0  0  0  0  0  0
    5.2439    0.6320    0.0000 H   0  0  0  0  0  0  0  0  0  0  0  0
    5.2439    1.4291    0.0000 H   0  0  0  0  0  0  0  0  0  0  0  0
    5.2439   -1.1000    0.0000 H   0  0  0  0  0  0  0  0  0  0  0  0
    5.2439   -0.3030    0.0000 H   0  0  0  0  0  0  0  0  0  0  0  0
    3.7940    2.2951    0.0000 H   0  0  0  0  0  0  0  0  0  0  0  0
    3.7940    1.4981    0.0000 H   0  0  0  0  0  0  0  0  0  0  0  0
    3.7940   -1.1690    0.0000 H   0  0  0  0  0  0  0  0  0  0  0  0
    3.7940   -1.9660    0.0000 H   0  0  0  0  0  0  0  0  0  0  0  0
    5.2439    2.3641    0.0000 H   0  0  0  0  0  0  0  0  0  0  0  0
    5.2439    3.1612    0.0000 H   0  0  0  0  0  0  0  0  0  0  0  0
    5.2439   -2.8321    0.0000 H   0  0  0  0  0  0  0  0  0  0  0  0
    5.2439   -2.0350    0.0000 H   0  0  0  0  0  0  0  0  0  0  0  0
    3.7940    4.0272    0.0000 H   0  0  0  0  0  0  0  0  0  0  0  0
    3.7940    3.2301    0.0000 H   0  0  0  0  0  0  0  0  0  0  0  0
    3.7940   -2.9010    0.0000 H   0  0  0  0  0  0  0  0  0  0  0  0
    3.7940   -3.6981    0.0000 H   0  0  0  0  0  0  0  0  0  0  0  0
    5.2439    4.0961    0.0000 H   0  0  0  0  0  0  0  0  0  0  0  0
    5.2439    4.8932    0.0000 H   0  0  0  0  0  0  0  0  0  0  0  0
    5.2439   -4.5641    0.0000 H   0  0  0  0  0  0  0  0  0  0  0  0
    5.2439   -3.7670    0.0000 H   0  0  0  0  0  0  0  0  0  0  0  0
    3.7940   -4.6331    0.0000 H   0  0  0  0  0  0  0  0  0  0  0  0
    3.7940   -5.4301    0.0000 H   0  0  0  0  0  0  0  0  0  0  0  0
    5.2439   -6.2962    0.0000 H   0  0  0  0  0  0  0  0  0  0  0  0
    5.2439   -5.4991    0.0000 H   0  0  0  0  0  0  0  0  0  0  0  0
    3.7940   -6.3651    0.0000 H   0  0  0  0  0  0  0  0  0  0  0  0
    3.7940   -7.1622    0.0000 H   0  0  0  0  0  0  0  0  0  0  0  0
    4.2320   -7.9397    0.0000 H   0  0  0  0  0  0  0  0  0  0  0  0
    5.0790   -8.1666    0.0000 H   0  0  0  0  0  0  0  0  0  0  0  0
    5.3059   -7.3197    0.0000 H   0  0  0  0  0  0  0  0  0  0  0  0
    2.0000    5.0507    0.0000 H   0  0  0  0  0  0  0  0  0  0  0  0
    6.5380    5.6707    0.0000 H   0  0  0  0  0  0  0  0  0  0  0  0
    3.9590    7.6297    0.0000 H   0  0  0  0  0  0  0  0  0  0  0  0
  1 22  1  0  0  0  0
  1 57  1  0  0  0  0
  2 23  1  0  0  0  0
  2 58  1  0  0  0  0
  3 24  1  0  0  0  0
  3 59  1  0  0  0  0
  4 22  2  0  0  0  0
  5 23  2  0  0  0  0
  6 24  2  0  0  0  0
  7  8  1  0  0  0  0
  7  9  1  0  0  0  0
  7 26  1  0  0  0  0
  7 27  1  0  0  0  0
  8 10  1  0  0  0  0
  8 28  1  0  0  0  0
  8 29  1  0  0  0  0
  9 11  1  0  0  0  0
  9 30  1  0  0  0  0
  9 31  1  0  0  0  0
 10 12  1  0  0  0  0
 10 32  1  0  0  0  0
 10 33  1  0  0  0  0
 11 13  1  0  0  0  0
 11 34  1  0  0  0  0
 11 35  1  0  0  0  0
 12 14  1  0  0  0  0
 12 36  1  0  0  0  0
 12 37  1  0  0  0  0
 13 15  1  0  0  0  0
 13 38  1  0  0  0  0
 13 39  1  0  0  0  0
 14 16  1  0  0  0  0
 14 40  1  0  0  0  0
 14 41  1  0  0  0  0
 15 17  1  0  0  0  0
 15 42  1  0  0  0  0
 15 43  1  0  0  0  0
 16 18  1  0  0  0  0
 16 44  1  0  0  0  0
 16 45  1  0  0  0  0
 17 19  1  0  0  0  0
 17 46  1  0  0  0  0
 17 47  1  0  0  0  0
 18 22  1  0  0  0  0
 18 23  1  0  0  0  0
 18 24  1  0  0  0  0
 19 20  1  0  0  0  0
 19 48  1  0  0  0  0
 19 49  1  0  0  0  0
 20 21  1  0  0  0  0
 20 50  1  0  0  0  0
 20 51  1  0  0  0  0
 21 25  1  0  0  0  0
 21 52  1  0  0  0  0
 21 53  1  0  0  0  0
 25 54  1  0  0  0  0
 25 55  1  0  0  0  0
 25 56  1  0  0  0  0
M  END
> <PUBCHEM_COMPOUND_CID>
22759042

> <PUBCHEM_COMPOUND_CANONICALIZED>
1

> <PUBCHEM_CACTVS_COMPLEXITY>
369

> <PUBCHEM_CACTVS_HBOND_ACCEPTOR>
6

> <PUBCHEM_CACTVS_HBOND_DONOR>
3

> <PUBCHEM_CACTVS_ROTATABLE_BOND>
17

> <PUBCHEM_CACTVS_SUBSKEYS>
AAADcfB4OAAAAAAAAAAAAAAAAAAAAAAAAAAAAAAAAAAAAAAAAAAAGgAACAAADgCAgAACCAAAAgAIAACQCAAAAAAAAAAAAAEAAAAAABYIAAAAQAAFIAAAAAGIyOCNAAAAAAAAAAAAAAAAAAAAAAAAAAAAAA==

> <PUBCHEM_IUPAC_OPENEYE_NAME>
hexadecane-1,1,1-tricarboxylic acid

> <PUBCHEM_IUPAC_CAS_NAME>
hexadecane-1,1,1-tricarboxylic acid

> <PUBCHEM_IUPAC_NAME_MARKUP>
hexadecane-1,1,1-tricarboxylic acid

> <PUBCHEM_IUPAC_NAME>
hexadecane-1,1,1-tricarboxylic acid

> <PUBCHEM_IUPAC_SYSTEMATIC_NAME>
hexadecane-1,1,1-tricarboxylic acid

> <PUBCHEM_IUPAC_TRADITIONAL_NAME>
hexadecane-1,1,1-tricarboxylic acid

> <PUBCHEM_IUPAC_INCHI>
InChI=1S/C19H34O6/c1-2-3-4-5-6-7-8-9-10-11-12-13-14-15-19(16(20)21,17(22)23)18(24)25/h2-15H2,1H3,(H,20,21)(H,22,23)(H,24,25)

> <PUBCHEM_IUPAC_INCHIKEY>
ANSFJQTYPZHGGT-UHFFFAOYSA-N

> <PUBCHEM_XLOGP3_AA>
7

> <PUBCHEM_EXACT_MASS>
358.23553880

> <PUBCHEM_MOLECULAR_FORMULA>
C19H34O6

> <PUBCHEM_MOLECULAR_WEIGHT>
358.5

> <PUBCHEM_OPENEYE_CAN_SMILES>
CCCCCCCCCCCCCCCC(C(=O)O)(C(=O)O)C(=O)O

> <PUBCHEM_OPENEYE_ISO_SMILES>
CCCCCCCCCCCCCCCC(C(=O)O)(C(=O)O)C(=O)O

> <PUBCHEM_CACTVS_TPSA>
112

> <PUBCHEM_MONOISOTOPIC_WEIGHT>
358.23553880

> <PUBCHEM_TOTAL_CHARGE>
0

> <PUBCHEM_HEAVY_ATOM_COUNT>
25

> <PUBCHEM_ATOM_DEF_STEREO_COUNT>
0

> <PUBCHEM_ATOM_UDEF_STEREO_COUNT>
0

> <PUBCHEM_BOND_DEF_STEREO_COUNT>
0

> <PUBCHEM_BOND_UDEF_STEREO_COUNT>
0

> <PUBCHEM_ISOTOPIC_ATOM_COUNT>
0

> <PUBCHEM_COMPONENT_COUNT>
1

> <PUBCHEM_CACTVS_TAUTO_COUNT>
-1

> <PUBCHEM_COORDINATE_TYPE>
1
5
255

$$$$
