 
  -OEChem-10192104252D

 42 44  0     1  0  0  0  0  0999 V2000
    6.4504    3.4584    0.0000 P   0  0  0  0  0  0  0  0  0  0  0  0
    5.8055    0.0053    0.0000 O   0  0  0  0  0  0  0  0  0  0  0  0
    8.1515   -1.0866    0.0000 O   0  0  0  0  0  0  0  0  0  0  0  0
    8.1552    1.0890    0.0000 O   0  0  0  0  0  0  0  0  0  0  0  0
    6.7577    2.5068    0.0000 O   0  0  0  0  0  0  0  0  0  0  0  0
    6.1430    4.4100    0.0000 O   0  0  0  0  0  0  0  0  0  0  0  0
    7.4020    3.7658    0.0000 O   0  0  0  0  0  0  0  0  0  0  0  0
    5.4988    3.1510    0.0000 O   0  0  0  0  0  0  0  0  0  0  0  0
    6.0812   -1.7553    0.0000 N   0  0  0  0  0  0  0  0  0  0  0  0
    6.0812   -3.3648    0.0000 N   0  0  0  0  0  0  0  0  0  0  0  0
    4.2690   -1.5600    0.0000 N   0  0  0  0  0  0  0  0  0  0  0  0
    3.4030   -3.0600    0.0000 N   0  0  0  0  0  0  0  0  0  0  0  0
    4.2690   -4.5600    0.0000 N   0  0  0  0  0  0  0  0  0  0  0  0
    2.5369   -1.5600    0.0000 N   0  0  0  0  0  0  0  0  0  0  0  0
    6.3919   -0.8048    0.0000 C   0  0  1  0  0  0  0  0  0  0  0  0
    7.3435   -0.4974    0.0000 C   0  0  1  0  0  0  0  0  0  0  0  0
    7.3452    0.5026    0.0000 C   0  0  1  0  0  0  0  0  0  0  0  0
    6.3947    0.8132    0.0000 C   0  0  1  0  0  0  0  0  0  0  0  0
    6.0873    1.7648    0.0000 C   0  0  0  0  0  0  0  0  0  0  0  0
    5.1350   -2.0600    0.0000 C   0  0  0  0  0  0  0  0  0  0  0  0
    6.6648   -2.5600    0.0000 C   0  0  0  0  0  0  0  0  0  0  0  0
    5.1350   -3.0600    0.0000 C   0  0  0  0  0  0  0  0  0  0  0  0
    7.6648   -2.5600    0.0000 C   0  0  0  0  0  0  0  0  0  0  0  0
    4.2690   -3.5600    0.0000 C   0  0  0  0  0  0  0  0  0  0  0  0
    3.4030   -2.0600    0.0000 C   0  0  0  0  0  0  0  0  0  0  0  0
    5.7794   -0.9007    0.0000 H   0  0  0  0  0  0  0  0  0  0  0  0
    7.2454   -1.1096    0.0000 H   0  0  0  0  0  0  0  0  0  0  0  0
    7.2493    1.1151    0.0000 H   0  0  0  0  0  0  0  0  0  0  0  0
    5.7825    0.9113    0.0000 H   0  0  0  0  0  0  0  0  0  0  0  0
    5.7065    2.2541    0.0000 H   0  0  0  0  0  0  0  0  0  0  0  0
    5.5394    1.4747    0.0000 H   0  0  0  0  0  0  0  0  0  0  0  0
    8.7183   -0.8354    0.0000 H   0  0  0  0  0  0  0  0  0  0  0  0
    8.7212    0.8358    0.0000 H   0  0  0  0  0  0  0  0  0  0  0  0
    7.6648   -3.1800    0.0000 H   0  0  0  0  0  0  0  0  0  0  0  0
    8.2848   -2.5600    0.0000 H   0  0  0  0  0  0  0  0  0  0  0  0
    7.6648   -1.9400    0.0000 H   0  0  0  0  0  0  0  0  0  0  0  0
    3.7320   -4.8700    0.0000 H   0  0  0  0  0  0  0  0  0  0  0  0
    4.8059   -4.8700    0.0000 H   0  0  0  0  0  0  0  0  0  0  0  0
    2.0000   -1.8700    0.0000 H   0  0  0  0  0  0  0  0  0  0  0  0
    2.5369   -0.9400    0.0000 H   0  0  0  0  0  0  0  0  0  0  0  0
    6.5587    4.8700    0.0000 H   0  0  0  0  0  0  0  0  0  0  0  0
    7.5319    4.3720    0.0000 H   0  0  0  0  0  0  0  0  0  0  0  0
  1  5  1  0  0  0  0
  1  6  1  0  0  0  0
  1  7  1  0  0  0  0
  1  8  2  0  0  0  0
  2 15  1  0  0  0  0
  2 18  1  0  0  0  0
 16  3  1  1  0  0  0
  3 32  1  0  0  0  0
 17  4  1  1  0  0  0
  4 33  1  0  0  0  0
  5 19  1  0  0  0  0
  6 41  1  0  0  0  0
  7 42  1  0  0  0  0
 15  9  1  6  0  0  0
  9 20  1  0  0  0  0
  9 21  1  0  0  0  0
 10 21  2  0  0  0  0
 10 22  1  0  0  0  0
 11 20  2  0  0  0  0
 11 25  1  0  0  0  0
 12 24  1  0  0  0  0
 12 25  2  0  0  0  0
 13 24  1  0  0  0  0
 13 37  1  0  0  0  0
 13 38  1  0  0  0  0
 14 25  1  0  0  0  0
 14 39  1  0  0  0  0
 14 40  1  0  0  0  0
 15 16  1  0  0  0  0
 15 26  1  0  0  0  0
 16 17  1  0  0  0  0
 16 27  1  0  0  0  0
 17 18  1  0  0  0  0
 17 28  1  0  0  0  0
 18 19  1  6  0  0  0
 18 29  1  0  0  0  0
 19 30  1  0  0  0  0
 19 31  1  0  0  0  0
 20 22  1  0  0  0  0
 21 23  1  0  0  0  0
 22 24  2  0  0  0  0
 23 34  1  0  0  0  0
 23 35  1  0  0  0  0
 23 36  1  0  0  0  0
M  END
> <PUBCHEM_COMPOUND_CID>
196333

> <PUBCHEM_COMPOUND_CANONICALIZED>
1

> <PUBCHEM_CACTVS_COMPLEXITY>
539

> <PUBCHEM_CACTVS_HBOND_ACCEPTOR>
12

> <PUBCHEM_CACTVS_HBOND_DONOR>
6

> <PUBCHEM_CACTVS_ROTATABLE_BOND>
4

> <PUBCHEM_CACTVS_SUBSKEYS>
AAADceBzuAIAAAAAAAAAAAAAAAAAAWJAAAAsAAAAAAAAAFgB+AAAHgAQCCAACBzhlwYD8L9MFxCgQQZgZICAgC0BEKABUCA4VBCDWAJAyEAeRAgPAALTACDwMAIAAAAAAAAAAAAAAAAAAAAAAAAAAAAAAA==

> <PUBCHEM_IUPAC_OPENEYE_NAME>
[(2R,3S,4R,5R)-5-(2,6-diamino-8-methyl-purin-9-yl)-3,4-dihydroxy-tetrahydrofuran-2-yl]methyl dihydrogen phosphate

> <PUBCHEM_IUPAC_CAS_NAME>
[(2R,3S,4R,5R)-5-(2,6-diamino-8-methyl-9-purinyl)-3,4-dihydroxy-2-oxolanyl]methyl dihydrogen phosphate

> <PUBCHEM_IUPAC_NAME_MARKUP>
[(2<I>R</I>,3<I>S</I>,4<I>R</I>,5<I>R</I>)-5-(2,6-diamino-8-methylpurin-9-yl)-3,4-dihydroxyoxolan-2-yl]methyl dihydrogen phosphate

> <PUBCHEM_IUPAC_NAME>
[(2R,3S,4R,5R)-5-(2,6-diamino-8-methylpurin-9-yl)-3,4-dihydroxyoxolan-2-yl]methyl dihydrogen phosphate

> <PUBCHEM_IUPAC_SYSTEMATIC_NAME>
[(2R,3S,4R,5R)-5-[2,6-bis(azanyl)-8-methyl-purin-9-yl]-3,4-bis(oxidanyl)oxolan-2-yl]methyl dihydrogen phosphate

> <PUBCHEM_IUPAC_TRADITIONAL_NAME>
[(2R,3S,4R,5R)-5-(2,6-diamino-8-methyl-purin-9-yl)-3,4-dihydroxy-tetrahydrofuran-2-yl]methyl dihydrogen phosphate

> <PUBCHEM_IUPAC_INCHI>
InChI=1S/C11H17N6O7P/c1-3-14-5-8(12)15-11(13)16-9(5)17(3)10-7(19)6(18)4(24-10)2-23-25(20,21)22/h4,6-7,10,18-19H,2H2,1H3,(H2,20,21,22)(H4,12,13,15,16)/t4-,6-,7-,10-/m1/s1

> <PUBCHEM_IUPAC_INCHIKEY>
LRLFIIIFUGHXLL-KQYNXXCUSA-N

> <PUBCHEM_XLOGP3_AA>
-3.5

> <PUBCHEM_EXACT_MASS>
376.08963390

> <PUBCHEM_MOLECULAR_FORMULA>
C11H17N6O7P

> <PUBCHEM_MOLECULAR_WEIGHT>
376.26

> <PUBCHEM_OPENEYE_CAN_SMILES>
CC1=NC2=C(N=C(N=C2N1C3C(C(C(O3)COP(=O)(O)O)O)O)N)N

> <PUBCHEM_OPENEYE_ISO_SMILES>
CC1=NC2=C(N=C(N=C2N1[C@H]3[C@@H]([C@@H]([C@H](O3)COP(=O)(O)O)O)O)N)N

> <PUBCHEM_CACTVS_TPSA>
212

> <PUBCHEM_MONOISOTOPIC_WEIGHT>
376.08963390

> <PUBCHEM_TOTAL_CHARGE>
0

> <PUBCHEM_HEAVY_ATOM_COUNT>
25

> <PUBCHEM_ATOM_DEF_STEREO_COUNT>
4

> <PUBCHEM_ATOM_UDEF_STEREO_COUNT>
0

> <PUBCHEM_BOND_DEF_STEREO_COUNT>
0

> <PUBCHEM_BOND_UDEF_STEREO_COUNT>
0

> <PUBCHEM_ISOTOPIC_ATOM_COUNT>
0

> <PUBCHEM_COMPONENT_COUNT>
1

> <PUBCHEM_CACTVS_TAUTO_COUNT>
9

> <PUBCHEM_COORDINATE_TYPE>
1
5
255

> <PUBCHEM_BONDANNOTATIONS>
10  21  8
10  22  8
11  20  8
11  25  8
12  24  8
12  25  8
18  19  6
20  22  8
22  24  8
16  3  5
17  4  5
15  9  6
9  20  8
9  21  8

$$$$
