 
  -OEChem-10192104312D

 54 57  0     1  0  0  0  0  0999 V2000
    3.7320   -0.4806    0.0000 O   0  0  0  0  0  0  0  0  0  0  0  0
    2.0000    2.5194    0.0000 O   0  5  0  0  0  0  0  0  0  0  0  0
    2.8660    4.0194    0.0000 O   0  0  0  0  0  0  0  0  0  0  0  0
    7.1962   -1.4806    0.0000 O   0  0  0  0  0  0  0  0  0  0  0  0
    4.5981    4.0194    0.0000 N   0  0  0  0  0  0  0  0  0  0  0  0
    4.5981    6.0194    0.0000 N   0  0  0  0  0  0  0  0  0  0  0  0
    2.8660    3.0194    0.0000 N   0  3  0  0  0  0  0  0  0  0  0  0
    5.4641   -0.4806    0.0000 N   0  0  0  0  0  0  0  0  0  0  0  0
    5.4641   -1.4806    0.0000 N   0  0  0  0  0  0  0  0  0  0  0  0
    6.3301   -5.9806    0.0000 N   0  0  0  0  0  0  0  0  0  0  0  0
    7.1391   -6.5684    0.0000 N   0  0  0  0  0  0  0  0  0  0  0  0
    5.8301   -7.5194    0.0000 N   0  0  0  0  0  0  0  0  0  0  0  0
    6.8301   -7.5194    0.0000 N   0  0  0  0  0  0  0  0  0  0  0  0
    5.4641    4.5194    0.0000 C   0  0  3  0  0  0  0  0  0  0  0  0
    4.5981    3.0194    0.0000 C   0  0  0  0  0  0  0  0  0  0  0  0
    5.4641    5.5194    0.0000 C   0  0  0  0  0  0  0  0  0  0  0  0
    6.3301    4.0194    0.0000 C   0  0  0  0  0  0  0  0  0  0  0  0
    3.7320    2.5194    0.0000 C   0  0  0  0  0  0  0  0  0  0  0  0
    5.4641    2.5194    0.0000 C   0  0  0  0  0  0  0  0  0  0  0  0
    4.5981    1.0194    0.0000 C   0  0  0  0  0  0  0  0  0  0  0  0
    3.7320    1.5194    0.0000 C   0  0  0  0  0  0  0  0  0  0  0  0
    5.4641    1.5194    0.0000 C   0  0  0  0  0  0  0  0  0  0  0  0
    6.3301    6.0194    0.0000 C   0  0  0  0  0  0  0  0  0  0  0  0
    4.5981    0.0194    0.0000 C   0  0  0  0  0  0  0  0  0  0  0  0
    6.3301    7.0194    0.0000 C   0  0  0  0  0  0  0  0  0  0  0  0
    4.5981    7.0194    0.0000 C   0  0  0  0  0  0  0  0  0  0  0  0
    5.4641    7.5194    0.0000 C   0  0  0  0  0  0  0  0  0  0  0  0
    6.3301   -2.9806    0.0000 C   0  0  0  0  0  0  0  0  0  0  0  0
    6.3301   -4.9806    0.0000 C   0  0  0  0  0  0  0  0  0  0  0  0
    6.3301   -1.9806    0.0000 C   0  0  0  0  0  0  0  0  0  0  0  0
    7.1962   -3.4806    0.0000 C   0  0  0  0  0  0  0  0  0  0  0  0
    5.4641   -3.4806    0.0000 C   0  0  0  0  0  0  0  0  0  0  0  0
    7.1962   -4.4806    0.0000 C   0  0  0  0  0  0  0  0  0  0  0  0
    5.4641   -4.4806    0.0000 C   0  0  0  0  0  0  0  0  0  0  0  0
    5.5211   -6.5684    0.0000 C   0  0  0  0  0  0  0  0  0  0  0  0
    5.4641    3.8994    0.0000 H   0  0  0  0  0  0  0  0  0  0  0  0
    4.0611    4.3294    0.0000 H   0  0  0  0  0  0  0  0  0  0  0  0
    6.0201    3.4825    0.0000 H   0  0  0  0  0  0  0  0  0  0  0  0
    6.8671    3.7094    0.0000 H   0  0  0  0  0  0  0  0  0  0  0  0
    6.6401    4.5564    0.0000 H   0  0  0  0  0  0  0  0  0  0  0  0
    6.0010    2.8294    0.0000 H   0  0  0  0  0  0  0  0  0  0  0  0
    3.1951    1.2094    0.0000 H   0  0  0  0  0  0  0  0  0  0  0  0
    6.0010    1.2094    0.0000 H   0  0  0  0  0  0  0  0  0  0  0  0
    6.8671    5.7094    0.0000 H   0  0  0  0  0  0  0  0  0  0  0  0
    6.8671    7.3294    0.0000 H   0  0  0  0  0  0  0  0  0  0  0  0
    4.0611    7.3294    0.0000 H   0  0  0  0  0  0  0  0  0  0  0  0
    5.4641    8.1394    0.0000 H   0  0  0  0  0  0  0  0  0  0  0  0
    6.0010   -0.1706    0.0000 H   0  0  0  0  0  0  0  0  0  0  0  0
    7.7331   -3.1706    0.0000 H   0  0  0  0  0  0  0  0  0  0  0  0
    4.9272   -3.1706    0.0000 H   0  0  0  0  0  0  0  0  0  0  0  0
    4.9272   -1.7906    0.0000 H   0  0  0  0  0  0  0  0  0  0  0  0
    7.7331   -4.7906    0.0000 H   0  0  0  0  0  0  0  0  0  0  0  0
    4.9272   -4.7906    0.0000 H   0  0  0  0  0  0  0  0  0  0  0  0
    4.9315   -6.3768    0.0000 H   0  0  0  0  0  0  0  0  0  0  0  0
  1 24  2  0  0  0  0
  2  7  1  0  0  0  0
  3  7  2  0  0  0  0
  4 30  2  0  0  0  0
  5 14  1  0  0  0  0
  5 15  1  0  0  0  0
  5 37  1  0  0  0  0
  6 16  1  0  0  0  0
  6 26  2  0  0  0  0
  7 18  1  0  0  0  0
  8  9  1  0  0  0  0
  8 24  1  0  0  0  0
  8 48  1  0  0  0  0
  9 30  1  0  0  0  0
  9 51  1  0  0  0  0
 10 11  1  0  0  0  0
 10 29  1  0  0  0  0
 10 35  1  0  0  0  0
 11 13  2  0  0  0  0
 12 13  1  0  0  0  0
 12 35  2  0  0  0  0
 14 16  1  0  0  0  0
 14 17  1  0  0  0  0
 14 36  1  0  0  0  0
 15 18  2  0  0  0  0
 15 19  1  0  0  0  0
 16 23  2  0  0  0  0
 17 38  1  0  0  0  0
 17 39  1  0  0  0  0
 17 40  1  0  0  0  0
 18 21  1  0  0  0  0
 19 22  2  0  0  0  0
 19 41  1  0  0  0  0
 20 21  2  0  0  0  0
 20 22  1  0  0  0  0
 20 24  1  0  0  0  0
 21 42  1  0  0  0  0
 22 43  1  0  0  0  0
 23 25  1  0  0  0  0
 23 44  1  0  0  0  0
 25 27  2  0  0  0  0
 25 45  1  0  0  0  0
 26 27  1  0  0  0  0
 26 46  1  0  0  0  0
 27 47  1  0  0  0  0
 28 30  1  0  0  0  0
 28 31  2  0  0  0  0
 28 32  1  0  0  0  0
 29 33  2  0  0  0  0
 29 34  1  0  0  0  0
 31 33  1  0  0  0  0
 31 49  1  0  0  0  0
 32 34  2  0  0  0  0
 32 50  1  0  0  0  0
 33 52  1  0  0  0  0
 34 53  1  0  0  0  0
 35 54  1  0  0  0  0
M  CHG  2   2  -1   7   1
M  END
> <PUBCHEM_COMPOUND_CID>
56005248

> <PUBCHEM_COMPOUND_CANONICALIZED>
1

> <PUBCHEM_CACTVS_COMPLEXITY>
743

> <PUBCHEM_CACTVS_HBOND_ACCEPTOR>
9

> <PUBCHEM_CACTVS_HBOND_DONOR>
3

> <PUBCHEM_CACTVS_ROTATABLE_BOND>
6

> <PUBCHEM_CACTVS_SUBSKEYS>
AAADceB7+AAAAAAAAAAAAAAAAAAAAWAAAAA8YIAAAAAAAAAB9AAAHgAcAAAADCjBngQ/0Jb6UACrAzV3dwCChCM1gqI/+KE4dNqIYPLAnZGUIQhgkILIyacciQCeCAAAQAAAACAQAACAAAAAQAAAAAAAAA==

> <PUBCHEM_IUPAC_OPENEYE_NAME>
3-nitro-4-[1-(2-pyridyl)ethylamino]-N'-[4-(tetrazol-1-yl)benzoyl]benzohydrazide

> <PUBCHEM_IUPAC_CAS_NAME>
3-nitro-N'-[oxo-[4-(1-tetrazolyl)phenyl]methyl]-4-[1-(2-pyridinyl)ethylamino]benzohydrazide

> <PUBCHEM_IUPAC_NAME_MARKUP>
3-nitro-4-(1-pyridin-2-ylethylamino)-<I>N</I>&apos;-[4-(tetrazol-1-yl)benzoyl]benzohydrazide

> <PUBCHEM_IUPAC_NAME>
3-nitro-4-(1-pyridin-2-ylethylamino)-N'-[4-(tetrazol-1-yl)benzoyl]benzohydrazide

> <PUBCHEM_IUPAC_SYSTEMATIC_NAME>
3-nitro-4-(1-pyridin-2-ylethylamino)-N'-[4-(1,2,3,4-tetrazol-1-yl)phenyl]carbonyl-benzohydrazide

> <PUBCHEM_IUPAC_TRADITIONAL_NAME>
3-nitro-4-[1-(2-pyridyl)ethylamino]-N'-[4-(tetrazol-1-yl)benzoyl]benzohydrazide

> <PUBCHEM_IUPAC_INCHI>
InChI=1S/C22H19N9O4/c1-14(18-4-2-3-11-23-18)25-19-10-7-16(12-20(19)31(34)35)22(33)27-26-21(32)15-5-8-17(9-6-15)30-13-24-28-29-30/h2-14,25H,1H3,(H,26,32)(H,27,33)

> <PUBCHEM_IUPAC_INCHIKEY>
NCTMNJVYEJKEOB-UHFFFAOYSA-N

> <PUBCHEM_XLOGP3_AA>
2.9

> <PUBCHEM_EXACT_MASS>
473.15600012

> <PUBCHEM_MOLECULAR_FORMULA>
C22H19N9O4

> <PUBCHEM_MOLECULAR_WEIGHT>
473.4

> <PUBCHEM_OPENEYE_CAN_SMILES>
CC(C1=CC=CC=N1)NC2=C(C=C(C=C2)C(=O)NNC(=O)C3=CC=C(C=C3)N4C=NN=N4)[N+](=O)[O-]

> <PUBCHEM_OPENEYE_ISO_SMILES>
CC(C1=CC=CC=N1)NC2=C(C=C(C=C2)C(=O)NNC(=O)C3=CC=C(C=C3)N4C=NN=N4)[N+](=O)[O-]

> <PUBCHEM_CACTVS_TPSA>
173

> <PUBCHEM_MONOISOTOPIC_WEIGHT>
473.15600012

> <PUBCHEM_TOTAL_CHARGE>
0

> <PUBCHEM_HEAVY_ATOM_COUNT>
35

> <PUBCHEM_ATOM_DEF_STEREO_COUNT>
0

> <PUBCHEM_ATOM_UDEF_STEREO_COUNT>
1

> <PUBCHEM_BOND_DEF_STEREO_COUNT>
0

> <PUBCHEM_BOND_UDEF_STEREO_COUNT>
0

> <PUBCHEM_ISOTOPIC_ATOM_COUNT>
0

> <PUBCHEM_COMPONENT_COUNT>
1

> <PUBCHEM_CACTVS_TAUTO_COUNT>
-1

> <PUBCHEM_COORDINATE_TYPE>
1
5
255

> <PUBCHEM_BONDANNOTATIONS>
10  11  8
10  35  8
11  13  8
12  13  8
12  35  8
14  17  3
15  18  8
15  19  8
16  23  8
18  21  8
19  22  8
20  21  8
20  22  8
23  25  8
25  27  8
26  27  8
28  31  8
28  32  8
29  33  8
29  34  8
31  33  8
32  34  8
6  16  8
6  26  8

$$$$
