 
  -OEChem-10192104132D

 70 69  0     1  0  0  0  0  0999 V2000
   15.8564   -0.3450    0.0000 O   0  0  0  0  0  0  0  0  0  0  0  0
   17.5885   -1.3450    0.0000 O   0  0  0  0  0  0  0  0  0  0  0  0
   18.4545    1.1550    0.0000 O   0  0  0  0  0  0  0  0  0  0  0  0
   19.3205   -1.3450    0.0000 O   0  0  0  0  0  0  0  0  0  0  0  0
   14.9904    1.1550    0.0000 O   0  0  0  0  0  0  0  0  0  0  0  0
   15.8564    1.6550    0.0000 O   0  0  0  0  0  0  0  0  0  0  0  0
   21.0526   -0.3450    0.0000 O   0  0  0  0  0  0  0  0  0  0  0  0
   20.1865    1.1550    0.0000 O   0  0  0  0  0  0  0  0  0  0  0  0
    8.9282   -0.3450    0.0000 C   0  0  0  0  0  0  0  0  0  0  0  0
    8.0622    0.1550    0.0000 C   0  0  0  0  0  0  0  0  0  0  0  0
    9.7942    0.1550    0.0000 C   0  0  0  0  0  0  0  0  0  0  0  0
    7.1962   -0.3450    0.0000 C   0  0  0  0  0  0  0  0  0  0  0  0
   10.6603   -0.3450    0.0000 C   0  0  0  0  0  0  0  0  0  0  0  0
    6.3301    0.1550    0.0000 C   0  0  0  0  0  0  0  0  0  0  0  0
   11.5263    0.1550    0.0000 C   0  0  0  0  0  0  0  0  0  0  0  0
    5.4641   -0.3450    0.0000 C   0  0  0  0  0  0  0  0  0  0  0  0
   12.3923   -0.3450    0.0000 C   0  0  0  0  0  0  0  0  0  0  0  0
    4.5981    0.1550    0.0000 C   0  0  0  0  0  0  0  0  0  0  0  0
   13.2583    0.1550    0.0000 C   0  0  0  0  0  0  0  0  0  0  0  0
    3.7320   -0.3450    0.0000 C   0  0  0  0  0  0  0  0  0  0  0  0
   14.1244   -0.3450    0.0000 C   0  0  0  0  0  0  0  0  0  0  0  0
    2.8660    0.1550    0.0000 C   0  0  0  0  0  0  0  0  0  0  0  0
   17.5885   -0.3450    0.0000 C   0  0  1  0  0  0  0  0  0  0  0  0
   18.4545    0.1550    0.0000 C   0  0  1  0  0  0  0  0  0  0  0  0
   16.7224    0.1550    0.0000 C   0  0  2  0  0  0  0  0  0  0  0  0
   14.9904    0.1550    0.0000 C   0  0  0  0  0  0  0  0  0  0  0  0
   19.3205   -0.3450    0.0000 C   0  0  1  0  0  0  0  0  0  0  0  0
    2.0000   -0.3450    0.0000 C   0  0  0  0  0  0  0  0  0  0  0  0
   16.7224    1.1550    0.0000 C   0  0  0  0  0  0  0  0  0  0  0  0
   20.1865    0.1550    0.0000 C   0  0  0  0  0  0  0  0  0  0  0  0
    8.5297   -0.8199    0.0000 H   0  0  0  0  0  0  0  0  0  0  0  0
    9.3267   -0.8199    0.0000 H   0  0  0  0  0  0  0  0  0  0  0  0
    8.4607    0.6299    0.0000 H   0  0  0  0  0  0  0  0  0  0  0  0
    7.6636    0.6299    0.0000 H   0  0  0  0  0  0  0  0  0  0  0  0
   10.1928    0.6299    0.0000 H   0  0  0  0  0  0  0  0  0  0  0  0
    9.3957    0.6299    0.0000 H   0  0  0  0  0  0  0  0  0  0  0  0
    6.7976   -0.8199    0.0000 H   0  0  0  0  0  0  0  0  0  0  0  0
    7.5947   -0.8199    0.0000 H   0  0  0  0  0  0  0  0  0  0  0  0
   10.2617   -0.8199    0.0000 H   0  0  0  0  0  0  0  0  0  0  0  0
   11.0588   -0.8199    0.0000 H   0  0  0  0  0  0  0  0  0  0  0  0
    6.7287    0.6299    0.0000 H   0  0  0  0  0  0  0  0  0  0  0  0
    5.9316    0.6299    0.0000 H   0  0  0  0  0  0  0  0  0  0  0  0
   11.9248    0.6299    0.0000 H   0  0  0  0  0  0  0  0  0  0  0  0
   11.1278    0.6299    0.0000 H   0  0  0  0  0  0  0  0  0  0  0  0
    5.0656   -0.8199    0.0000 H   0  0  0  0  0  0  0  0  0  0  0  0
    5.8626   -0.8199    0.0000 H   0  0  0  0  0  0  0  0  0  0  0  0
   11.9938   -0.8199    0.0000 H   0  0  0  0  0  0  0  0  0  0  0  0
   12.7908   -0.8199    0.0000 H   0  0  0  0  0  0  0  0  0  0  0  0
    4.9966    0.6299    0.0000 H   0  0  0  0  0  0  0  0  0  0  0  0
    4.1996    0.6299    0.0000 H   0  0  0  0  0  0  0  0  0  0  0  0
   13.6569    0.6299    0.0000 H   0  0  0  0  0  0  0  0  0  0  0  0
   12.8598    0.6299    0.0000 H   0  0  0  0  0  0  0  0  0  0  0  0
    3.3335   -0.8199    0.0000 H   0  0  0  0  0  0  0  0  0  0  0  0
    4.1306   -0.8199    0.0000 H   0  0  0  0  0  0  0  0  0  0  0  0
   13.7258   -0.8199    0.0000 H   0  0  0  0  0  0  0  0  0  0  0  0
   14.5229   -0.8199    0.0000 H   0  0  0  0  0  0  0  0  0  0  0  0
    3.2646    0.6299    0.0000 H   0  0  0  0  0  0  0  0  0  0  0  0
    2.4675    0.6299    0.0000 H   0  0  0  0  0  0  0  0  0  0  0  0
   18.1254   -0.6550    0.0000 H   0  0  0  0  0  0  0  0  0  0  0  0
   18.9914    0.4650    0.0000 H   0  0  0  0  0  0  0  0  0  0  0  0
   16.1855    0.4650    0.0000 H   0  0  0  0  0  0  0  0  0  0  0  0
   19.8574   -0.6550    0.0000 H   0  0  0  0  0  0  0  0  0  0  0  0
    1.6900    0.1919    0.0000 H   0  0  0  0  0  0  0  0  0  0  0  0
    1.4631   -0.6550    0.0000 H   0  0  0  0  0  0  0  0  0  0  0  0
    2.3100   -0.8819    0.0000 H   0  0  0  0  0  0  0  0  0  0  0  0
   17.2594    1.4650    0.0000 H   0  0  0  0  0  0  0  0  0  0  0  0
   17.0515   -1.6550    0.0000 H   0  0  0  0  0  0  0  0  0  0  0  0
   18.9914    1.4650    0.0000 H   0  0  0  0  0  0  0  0  0  0  0  0
   19.8574   -1.6550    0.0000 H   0  0  0  0  0  0  0  0  0  0  0  0
   21.5895   -0.0350    0.0000 H   0  0  0  0  0  0  0  0  0  0  0  0
 25  1  1  1  0  0  0
  1 26  1  0  0  0  0
 23  2  1  6  0  0  0
  2 67  1  0  0  0  0
 24  3  1  6  0  0  0
  3 68  1  0  0  0  0
 27  4  1  1  0  0  0
  4 69  1  0  0  0  0
  5 26  2  0  0  0  0
  6 29  2  0  0  0  0
  7 30  1  0  0  0  0
  7 70  1  0  0  0  0
  8 30  2  0  0  0  0
  9 10  1  0  0  0  0
  9 11  1  0  0  0  0
  9 31  1  0  0  0  0
  9 32  1  0  0  0  0
 10 12  1  0  0  0  0
 10 33  1  0  0  0  0
 10 34  1  0  0  0  0
 11 13  1  0  0  0  0
 11 35  1  0  0  0  0
 11 36  1  0  0  0  0
 12 14  1  0  0  0  0
 12 37  1  0  0  0  0
 12 38  1  0  0  0  0
 13 15  1  0  0  0  0
 13 39  1  0  0  0  0
 13 40  1  0  0  0  0
 14 16  1  0  0  0  0
 14 41  1  0  0  0  0
 14 42  1  0  0  0  0
 15 17  1  0  0  0  0
 15 43  1  0  0  0  0
 15 44  1  0  0  0  0
 16 18  1  0  0  0  0
 16 45  1  0  0  0  0
 16 46  1  0  0  0  0
 17 19  1  0  0  0  0
 17 47  1  0  0  0  0
 17 48  1  0  0  0  0
 18 20  1  0  0  0  0
 18 49  1  0  0  0  0
 18 50  1  0  0  0  0
 19 21  1  0  0  0  0
 19 51  1  0  0  0  0
 19 52  1  0  0  0  0
 20 22  1  0  0  0  0
 20 53  1  0  0  0  0
 20 54  1  0  0  0  0
 21 26  1  0  0  0  0
 21 55  1  0  0  0  0
 21 56  1  0  0  0  0
 22 28  1  0  0  0  0
 22 57  1  0  0  0  0
 22 58  1  0  0  0  0
 23 24  1  0  0  0  0
 23 25  1  0  0  0  0
 23 59  1  0  0  0  0
 24 27  1  0  0  0  0
 24 60  1  0  0  0  0
 25 29  1  0  0  0  0
 25 61  1  0  0  0  0
 27 30  1  0  0  0  0
 27 62  1  0  0  0  0
 28 63  1  0  0  0  0
 28 64  1  0  0  0  0
 28 65  1  0  0  0  0
 29 66  1  0  0  0  0
M  END
> <PUBCHEM_COMPOUND_CID>
87520834

> <PUBCHEM_COMPOUND_CANONICALIZED>
1

> <PUBCHEM_CACTVS_COMPLEXITY>
468

> <PUBCHEM_CACTVS_HBOND_ACCEPTOR>
8

> <PUBCHEM_CACTVS_HBOND_DONOR>
4

> <PUBCHEM_CACTVS_ROTATABLE_BOND>
21

> <PUBCHEM_CACTVS_SUBSKEYS>
AAADcfB4PAAAAAAAAAAAAAAAAAAAAAAAAAAAAAAAAAAAAAAAAAAAGgAACAAACBSggAICCAAABgAIAAiQiAIAAAAAAAAAAAFAAAABEBYAAAQCQAAFIAADAAHK7KzAAAAAAAAAAAAAAAAAAAAAAAAAAAAAAA==

> <PUBCHEM_IUPAC_OPENEYE_NAME>
(2S,3S,4S,5R)-5-hexadecanoyloxy-2,3,4-trihydroxy-6-oxo-hexanoic acid

> <PUBCHEM_IUPAC_CAS_NAME>
(2S,3S,4S,5R)-2,3,4-trihydroxy-6-oxo-5-(1-oxohexadecoxy)hexanoic acid

> <PUBCHEM_IUPAC_NAME_MARKUP>
(2<I>S</I>,3<I>S</I>,4<I>S</I>,5<I>R</I>)-5-hexadecanoyloxy-2,3,4-trihydroxy-6-oxohexanoic acid

> <PUBCHEM_IUPAC_NAME>
(2S,3S,4S,5R)-5-hexadecanoyloxy-2,3,4-trihydroxy-6-oxohexanoic acid

> <PUBCHEM_IUPAC_SYSTEMATIC_NAME>
(2S,3S,4S,5R)-5-hexadecanoyloxy-2,3,4-tris(oxidanyl)-6-oxidanylidene-hexanoic acid

> <PUBCHEM_IUPAC_TRADITIONAL_NAME>
(2S,3S,4S,5R)-5-hexadecanoyloxy-2,3,4-trihydroxy-6-keto-hexanoic acid

> <PUBCHEM_IUPAC_INCHI>
InChI=1S/C22H40O8/c1-2-3-4-5-6-7-8-9-10-11-12-13-14-15-18(24)30-17(16-23)19(25)20(26)21(27)22(28)29/h16-17,19-21,25-27H,2-15H2,1H3,(H,28,29)/t17-,19+,20-,21-/m0/s1

> <PUBCHEM_IUPAC_INCHIKEY>
WAJXDVRTLYPGAO-NRDMVMEKSA-N

> <PUBCHEM_XLOGP3_AA>
4.7

> <PUBCHEM_EXACT_MASS>
432.27231823

> <PUBCHEM_MOLECULAR_FORMULA>
C22H40O8

> <PUBCHEM_MOLECULAR_WEIGHT>
432.5

> <PUBCHEM_OPENEYE_CAN_SMILES>
CCCCCCCCCCCCCCCC(=O)OC(C=O)C(C(C(C(=O)O)O)O)O

> <PUBCHEM_OPENEYE_ISO_SMILES>
CCCCCCCCCCCCCCCC(=O)O[C@@H](C=O)[C@H]([C@@H]([C@@H](C(=O)O)O)O)O

> <PUBCHEM_CACTVS_TPSA>
141

> <PUBCHEM_MONOISOTOPIC_WEIGHT>
432.27231823

> <PUBCHEM_TOTAL_CHARGE>
0

> <PUBCHEM_HEAVY_ATOM_COUNT>
30

> <PUBCHEM_ATOM_DEF_STEREO_COUNT>
4

> <PUBCHEM_ATOM_UDEF_STEREO_COUNT>
0

> <PUBCHEM_BOND_DEF_STEREO_COUNT>
0

> <PUBCHEM_BOND_UDEF_STEREO_COUNT>
0

> <PUBCHEM_ISOTOPIC_ATOM_COUNT>
0

> <PUBCHEM_COMPONENT_COUNT>
1

> <PUBCHEM_CACTVS_TAUTO_COUNT>
-1

> <PUBCHEM_COORDINATE_TYPE>
1
5
255

> <PUBCHEM_BONDANNOTATIONS>
25  1  5
23  2  6
24  3  6
27  4  5

$$$$
