 
  -OEChem-10192104342D

 78 82  0     1  0  0  0  0  0999 V2000
    4.9924   -0.7020    0.0000 P   0  0  3  0  0  0  0  0  0  0  0  0
    6.0086    2.2099    0.0000 O   0  0  0  0  0  0  0  0  0  0  0  0
    9.2705    1.7099    0.0000 O   0  0  0  0  0  0  0  0  0  0  0  0
    5.3031    0.2485    0.0000 O   0  0  0  0  0  0  0  0  0  0  0  0
    6.2816    3.9652    0.0000 O   0  0  0  0  0  0  0  0  0  0  0  0
    4.6817   -1.6526    0.0000 O   0  0  0  0  0  0  0  0  0  0  0  0
   13.7687    7.2391    0.0000 O   0  0  0  0  0  0  0  0  0  0  0  0
    4.0419   -0.3914    0.0000 O   0  0  0  0  0  0  0  0  0  0  0  0
    5.9429   -1.0127    0.0000 O   0  0  0  0  0  0  0  0  0  0  0  0
    3.0354   -1.1145    0.0000 O   0  0  0  0  0  0  0  0  0  0  0  0
   15.1579    8.3552    0.0000 O   0  0  0  0  0  0  0  0  0  0  0  0
    7.5384    2.7099    0.0000 N   0  0  0  0  0  0  0  0  0  0  0  0
   15.2443    6.5753    0.0000 N   0  0  0  0  0  0  0  0  0  0  0  0
   12.7885    4.7484    0.0000 N   0  0  0  0  0  0  0  0  0  0  0  0
    2.4141   -3.0155    0.0000 N   0  0  0  0  0  0  0  0  0  0  0  0
    4.1069   -6.1990    0.0000 N   0  0  0  0  0  0  0  0  0  0  0  0
    4.4641   -7.8938    0.0000 N   0  0  0  0  0  0  0  0  0  0  0  0
    5.7533   -6.7370    0.0000 N   0  0  0  0  0  0  0  0  0  0  0  0
    7.5384    1.7099    0.0000 C   0  0  2  0  0  0  0  0  0  0  0  0
    6.5922    1.4052    0.0000 C   0  0  2  0  0  0  0  0  0  0  0  0
    8.4045    1.2099    0.0000 C   0  0  0  0  0  0  0  0  0  0  0  0
    8.4045    3.2099    0.0000 C   0  0  0  0  0  0  0  0  0  0  0  0
    6.2816    0.4547    0.0000 C   0  0  0  0  0  0  0  0  0  0  0  0
    6.5922    3.0147    0.0000 C   0  0  0  0  0  0  0  0  0  0  0  0
    9.2705    2.7099    0.0000 C   0  0  0  0  0  0  0  0  0  0  0  0
    8.3884    4.2514    0.0000 C   0  0  0  0  0  0  0  0  0  0  0  0
   10.1805    3.2168    0.0000 C   0  0  0  0  0  0  0  0  0  0  0  0
   10.1885    4.2584    0.0000 C   0  0  0  0  0  0  0  0  0  0  0  0
    9.2864    4.7792    0.0000 C   0  0  0  0  0  0  0  0  0  0  0  0
   11.0565    4.7550    0.0000 C   0  0  0  0  0  0  0  0  0  0  0  0
   13.6603    6.2450    0.0000 C   0  0  3  0  0  0  0  0  0  0  0  0
   11.0603    5.7550    0.0000 C   0  0  0  0  0  0  0  0  0  0  0  0
   12.7924    5.7484    0.0000 C   0  0  0  0  0  0  0  0  0  0  0  0
   14.5723    5.8348    0.0000 C   0  0  0  0  0  0  0  0  0  0  0  0
   11.9206    4.2517    0.0000 C   0  0  0  0  0  0  0  0  0  0  0  0
   11.9283    6.2517    0.0000 C   0  0  0  0  0  0  0  0  0  0  0  0
    3.3926   -2.8093    0.0000 C   0  0  1  0  0  0  0  0  0  0  0  0
    4.0604   -3.5536    0.0000 C   0  0  0  0  0  0  0  0  0  0  0  0
    3.7498   -4.5041    0.0000 C   0  0  0  0  0  0  0  0  0  0  0  0
    3.7032   -1.8588    0.0000 C   0  0  0  0  0  0  0  0  0  0  0  0
   14.7476    7.4433    0.0000 C   0  0  0  0  0  0  0  0  0  0  0  0
    4.4176   -5.2484    0.0000 C   0  0  0  0  0  0  0  0  0  0  0  0
   16.2384    6.4670    0.0000 C   0  0  0  0  0  0  0  0  0  0  0  0
    4.7748   -6.9432    0.0000 C   0  0  0  0  0  0  0  0  0  0  0  0
    7.4485    0.8647    0.0000 H   0  0  0  0  0  0  0  0  0  0  0  0
    5.9797    1.3090    0.0000 H   0  0  0  0  0  0  0  0  0  0  0  0
    8.0060    0.7350    0.0000 H   0  0  0  0  0  0  0  0  0  0  0  0
    8.8030    0.7350    0.0000 H   0  0  0  0  0  0  0  0  0  0  0  0
    6.3021   -0.1650    0.0000 H   0  0  0  0  0  0  0  0  0  0  0  0
    6.8954    0.3673    0.0000 H   0  0  0  0  0  0  0  0  0  0  0  0
    7.8479    4.5552    0.0000 H   0  0  0  0  0  0  0  0  0  0  0  0
   10.7138    2.9006    0.0000 H   0  0  0  0  0  0  0  0  0  0  0  0
    9.2841    5.3992    0.0000 H   0  0  0  0  0  0  0  0  0  0  0  0
   13.1416    6.5847    0.0000 H   0  0  0  0  0  0  0  0  0  0  0  0
   10.5246    6.0671    0.0000 H   0  0  0  0  0  0  0  0  0  0  0  0
   14.2602    5.2990    0.0000 H   0  0  0  0  0  0  0  0  0  0  0  0
   15.0725    5.4684    0.0000 H   0  0  0  0  0  0  0  0  0  0  0  0
   11.9182    3.6317    0.0000 H   0  0  0  0  0  0  0  0  0  0  0  0
    2.9785   -2.3478    0.0000 H   0  0  0  0  0  0  0  0  0  0  0  0
   11.9307    6.8717    0.0000 H   0  0  0  0  0  0  0  0  0  0  0  0
    4.6073   -3.8456    0.0000 H   0  0  0  0  0  0  0  0  0  0  0  0
    4.4430   -3.0657    0.0000 H   0  0  0  0  0  0  0  0  0  0  0  0
    3.2028   -4.2121    0.0000 H   0  0  0  0  0  0  0  0  0  0  0  0
    3.3672   -4.9920    0.0000 H   0  0  0  0  0  0  0  0  0  0  0  0
    4.9645   -5.5404    0.0000 H   0  0  0  0  0  0  0  0  0  0  0  0
    4.8002   -4.7605    0.0000 H   0  0  0  0  0  0  0  0  0  0  0  0
    3.9140    0.2153    0.0000 H   0  0  0  0  0  0  0  0  0  0  0  0
   16.1712    5.8506    0.0000 H   0  0  0  0  0  0  0  0  0  0  0  0
   16.8547    6.3998    0.0000 H   0  0  0  0  0  0  0  0  0  0  0  0
   16.3056    7.0833    0.0000 H   0  0  0  0  0  0  0  0  0  0  0  0
    2.2214   -3.6048    0.0000 H   0  0  0  0  0  0  0  0  0  0  0  0
    2.0000   -2.5541    0.0000 H   0  0  0  0  0  0  0  0  0  0  0  0
    3.5003   -6.3268    0.0000 H   0  0  0  0  0  0  0  0  0  0  0  0
    4.1681   -7.0711    0.0000 H   0  0  0  0  0  0  0  0  0  0  0  0
    4.8782   -8.3552    0.0000 H   0  0  0  0  0  0  0  0  0  0  0  0
    3.8574   -8.0216    0.0000 H   0  0  0  0  0  0  0  0  0  0  0  0
    6.1673   -7.1985    0.0000 H   0  0  0  0  0  0  0  0  0  0  0  0
    5.9459   -6.1477    0.0000 H   0  0  0  0  0  0  0  0  0  0  0  0
  1  4  1  0  0  0  0
  1  6  1  0  0  0  0
  1  8  1  0  0  0  0
  1  9  2  0  0  0  0
  2 20  1  0  0  0  0
  2 24  1  0  0  0  0
  3 21  1  0  0  0  0
  3 25  1  0  0  0  0
  4 23  1  0  0  0  0
  5 24  2  0  0  0  0
  6 40  1  0  0  0  0
  7 31  1  0  0  0  0
  7 41  1  0  0  0  0
  8 67  1  0  0  0  0
 10 40  2  0  0  0  0
 11 41  2  0  0  0  0
 12 19  1  0  0  0  0
 12 22  1  0  0  0  0
 12 24  1  0  0  0  0
 13 34  1  0  0  0  0
 13 41  1  0  0  0  0
 13 43  1  0  0  0  0
 14 33  2  0  0  0  0
 14 35  1  0  0  0  0
 37 15  1  6  0  0  0
 15 71  1  0  0  0  0
 15 72  1  0  0  0  0
 16 42  1  0  0  0  0
 16 44  1  0  0  0  0
 16 73  1  0  0  0  0
 17 44  1  0  0  0  0
 17 75  1  0  0  0  0
 17 76  1  0  0  0  0
 18 44  1  0  0  0  0
 18 77  1  0  0  0  0
 18 78  1  0  0  0  0
 19 20  1  0  0  0  0
 19 21  1  0  0  0  0
 19 45  1  6  0  0  0
 20 23  1  6  0  0  0
 20 46  1  0  0  0  0
 21 47  1  0  0  0  0
 21 48  1  0  0  0  0
 22 25  2  0  0  0  0
 22 26  1  0  0  0  0
 23 49  1  0  0  0  0
 23 50  1  0  0  0  0
 25 27  1  0  0  0  0
 26 29  2  0  0  0  0
 26 51  1  0  0  0  0
 27 28  2  0  0  0  0
 27 52  1  0  0  0  0
 28 29  1  0  0  0  0
 28 30  1  0  0  0  0
 29 53  1  0  0  0  0
 30 32  1  0  0  0  0
 30 35  2  0  0  0  0
 31 33  1  0  0  0  0
 31 34  1  0  0  0  0
 31 54  1  0  0  0  0
 32 36  2  0  0  0  0
 32 55  1  0  0  0  0
 33 36  1  0  0  0  0
 34 56  1  0  0  0  0
 34 57  1  0  0  0  0
 35 58  1  0  0  0  0
 36 60  1  0  0  0  0
 37 38  1  0  0  0  0
 37 40  1  0  0  0  0
 37 59  1  0  0  0  0
 38 39  1  0  0  0  0
 38 61  1  0  0  0  0
 38 62  1  0  0  0  0
 39 42  1  0  0  0  0
 39 63  1  0  0  0  0
 39 64  1  0  0  0  0
 42 65  1  0  0  0  0
 42 66  1  0  0  0  0
 43 68  1  0  0  0  0
 43 69  1  0  0  0  0
 43 70  1  0  0  0  0
 44 74  1  0  0  0  0
M  END
> <PUBCHEM_COMPOUND_CID>
118535903

> <PUBCHEM_COMPOUND_CANONICALIZED>
1

> <PUBCHEM_CACTVS_COMPLEXITY>
1100

> <PUBCHEM_CACTVS_HBOND_ACCEPTOR>
15

> <PUBCHEM_CACTVS_HBOND_DONOR>
5

> <PUBCHEM_CACTVS_ROTATABLE_BOND>
13

> <PUBCHEM_CACTVS_SUBSKEYS>
AAADcfB7vAIAAAAAAAAAAAAAAAAAAWLAAAA8WIAAAAAAAFixwAAAHgAQCCAADDzhngY/zpPIFRCoQzT3XISCiCAxIiAI2KG/bJiPJvLE8ZuPOCjn1hPa6AfY0fIOiAABAAAAEAAQAAIAAAAgAAAAAAAAAA==

> <PUBCHEM_IUPAC_OPENEYE_NAME>
[[(3R,3aS)-7-[6-(3-methyl-2-oxo-oxazolidin-5-yl)-3-pyridyl]-1-oxo-3a,4-dihydro-3H-oxazolo[4,3-c][1,4]benzoxazin-3-yl]methoxy-hydroxy-phosphoryl] (2S)-2-amino-5-(diaminomethylamino)pentanoate

> <PUBCHEM_IUPAC_CAS_NAME>
(2S)-2-amino-5-(diaminomethylamino)pentanoic acid [[(3R,3aS)-7-[6-(3-methyl-2-oxo-5-oxazolidinyl)-3-pyridinyl]-1-oxo-3a,4-dihydro-3H-oxazolo[4,3-c][1,4]benzoxazin-3-yl]methoxy-hydroxyphosphoryl] ester

> <PUBCHEM_IUPAC_NAME_MARKUP>
[[(3<I>R</I>,3<I>a</I><I>S</I>)-7-[6-(3-methyl-2-oxo-1,3-oxazolidin-5-yl)pyridin-3-yl]-1-oxo-3<I>a</I>,4-dihydro-3<I>H</I>-[1,3]oxazolo[4,3-c][1,4]benzoxazin-3-yl]methoxy-hydroxyphosphoryl] (2<I>S</I>)-2-amino-5-(diaminomethylamino)pentanoate

> <PUBCHEM_IUPAC_NAME>
[[(3R,3aS)-7-[6-(3-methyl-2-oxo-1,3-oxazolidin-5-yl)pyridin-3-yl]-1-oxo-3a,4-dihydro-3H-[1,3]oxazolo[4,3-c][1,4]benzoxazin-3-yl]methoxy-hydroxyphosphoryl] (2S)-2-amino-5-(diaminomethylamino)pentanoate

> <PUBCHEM_IUPAC_SYSTEMATIC_NAME>
[[(3R,3aS)-7-[6-(3-methyl-2-oxidanylidene-1,3-oxazolidin-5-yl)pyridin-3-yl]-1-oxidanylidene-3a,4-dihydro-3H-[1,3]oxazolo[4,3-c][1,4]benzoxazin-3-yl]methoxy-oxidanyl-phosphoryl] (2S)-2-azanyl-5-[bis(azanyl)methylamino]pentanoate

> <PUBCHEM_IUPAC_TRADITIONAL_NAME>
(2S)-2-amino-5-(diaminomethylamino)valeric acid [[(3R,3aS)-1-keto-7-[6-(2-keto-3-methyl-oxazolidin-5-yl)-3-pyridyl]-3a,4-dihydro-3H-oxazolo[4,3-c][1,4]benzoxazin-3-yl]methoxy-hydroxy-phosphoryl] ester

> <PUBCHEM_IUPAC_INCHI>
InChI=1S/C26H34N7O10P/c1-32-11-21(41-25(32)35)17-6-4-15(10-31-17)14-5-7-18-20(9-14)39-12-19-22(42-26(36)33(18)19)13-40-44(37,38)43-23(34)16(27)3-2-8-30-24(28)29/h4-7,9-10,16,19,21-22,24,30H,2-3,8,11-13,27-29H2,1H3,(H,37,38)/t16-,19-,21?,22-/m0/s1

> <PUBCHEM_IUPAC_INCHIKEY>
UBRNUOYEDXFSFD-VJPHHBDESA-N

> <PUBCHEM_XLOGP3_AA>
-4.3

> <PUBCHEM_EXACT_MASS>
635.21047730

> <PUBCHEM_MOLECULAR_FORMULA>
C26H34N7O10P

> <PUBCHEM_MOLECULAR_WEIGHT>
635.6

> <PUBCHEM_OPENEYE_CAN_SMILES>
CN1CC(OC1=O)C2=NC=C(C=C2)C3=CC4=C(C=C3)N5C(CO4)C(OC5=O)COP(=O)(O)OC(=O)C(CCCNC(N)N)N

> <PUBCHEM_OPENEYE_ISO_SMILES>
CN1CC(OC1=O)C2=NC=C(C=C2)C3=CC4=C(C=C3)N5[C@@H](CO4)[C@@H](OC5=O)COP(=O)(O)OC(=O)[C@H](CCCNC(N)N)N

> <PUBCHEM_CACTVS_TPSA>
244

> <PUBCHEM_MONOISOTOPIC_WEIGHT>
635.21047730

> <PUBCHEM_TOTAL_CHARGE>
0

> <PUBCHEM_HEAVY_ATOM_COUNT>
44

> <PUBCHEM_ATOM_DEF_STEREO_COUNT>
3

> <PUBCHEM_ATOM_UDEF_STEREO_COUNT>
1

> <PUBCHEM_BOND_DEF_STEREO_COUNT>
0

> <PUBCHEM_BOND_UDEF_STEREO_COUNT>
0

> <PUBCHEM_ISOTOPIC_ATOM_COUNT>
0

> <PUBCHEM_COMPONENT_COUNT>
1

> <PUBCHEM_CACTVS_TAUTO_COUNT>
-1

> <PUBCHEM_COORDINATE_TYPE>
1
5
255

> <PUBCHEM_BONDANNOTATIONS>
14  33  8
14  35  8
37  15  6
19  45  6
20  23  6
22  25  8
22  26  8
25  27  8
26  29  8
27  28  8
28  29  8
30  32  8
30  35  8
31  33  3
32  36  8
33  36  8

$$$$
