 
  -OEChem-10192104082D

 76 78  0     1  0  0  0  0  0999 V2000
    9.8671    0.7890    0.0000 O   0  0  0  0  0  0  0  0  0  0  0  0
    6.8671   -0.9431    0.0000 O   0  0  0  0  0  0  0  0  0  0  0  0
    8.8671   -0.9431    0.0000 O   0  0  0  0  0  0  0  0  0  0  0  0
    9.8671   -0.9431    0.0000 O   0  0  0  0  0  0  0  0  0  0  0  0
    5.1350   -0.9431    0.0000 O   0  0  0  0  0  0  0  0  0  0  0  0
   11.8671    0.7890    0.0000 O   0  0  0  0  0  0  0  0  0  0  0  0
    6.8671   -2.9431    0.0000 O   0  0  0  0  0  0  0  0  0  0  0  0
   11.8671   -2.6751    0.0000 O   0  0  0  0  0  0  0  0  0  0  0  0
    5.1350   -3.9431    0.0000 O   0  0  0  0  0  0  0  0  0  0  0  0
    3.4030   -2.9431    0.0000 O   0  0  0  0  0  0  0  0  0  0  0  0
    8.8671   -2.6751    0.0000 O   0  0  0  0  0  0  0  0  0  0  0  0
    8.8671    4.2531    0.0000 O   0  0  0  0  0  0  0  0  0  0  0  0
    8.8671    2.5210    0.0000 N   0  0  0  0  0  0  0  0  0  0  0  0
    5.8671    0.7890    0.0000 N   0  0  0  0  0  0  0  0  0  0  0  0
   12.8671   -0.9431    0.0000 N   0  0  0  0  0  0  0  0  0  0  0  0
    2.5369   -1.4431    0.0000 N   0  0  0  0  0  0  0  0  0  0  0  0
    6.8671    4.2531    0.0000 N   0  0  0  0  0  0  0  0  0  0  0  0
    5.8671    4.2531    0.0000 N   0  3  0  0  0  0  0  0  0  0  0  0
    4.8671    4.2531    0.0000 N   0  5  0  0  0  0  0  0  0  0  0  0
    8.8671    0.7890    0.0000 C   0  0  1  0  0  0  0  0  0  0  0  0
    7.3671   -0.0771    0.0000 C   0  0  2  0  0  0  0  0  0  0  0  0
    8.3671    1.6550    0.0000 C   0  0  1  0  0  0  0  0  0  0  0  0
    8.3671   -0.0771    0.0000 C   0  0  3  0  0  0  0  0  0  0  0  0
    6.8671    0.7890    0.0000 C   0  0  3  0  0  0  0  0  0  0  0  0
    7.3671    1.6550    0.0000 C   0  0  0  0  0  0  0  0  0  0  0  0
   10.3671   -0.0771    0.0000 C   0  0  1  0  0  0  0  0  0  0  0  0
    6.0010   -1.4431    0.0000 C   0  0  2  0  0  0  0  0  0  0  0  0
   11.3671   -0.0771    0.0000 C   0  0  3  0  0  0  0  0  0  0  0  0
   11.8671   -0.9431    0.0000 C   0  0  2  0  0  0  0  0  0  0  0  0
    6.0010   -2.4431    0.0000 C   0  0  1  0  0  0  0  0  0  0  0  0
   11.3671   -1.8091    0.0000 C   0  0  1  0  0  0  0  0  0  0  0  0
    5.1350   -2.9431    0.0000 C   0  0  3  0  0  0  0  0  0  0  0  0
   10.3671   -1.8091    0.0000 C   0  0  3  0  0  0  0  0  0  0  0  0
    4.2690   -2.4431    0.0000 C   0  0  2  0  0  0  0  0  0  0  0  0
    4.2690   -1.4431    0.0000 C   0  0  3  0  0  0  0  0  0  0  0  0
    8.3671    3.3870    0.0000 C   0  0  0  0  0  0  0  0  0  0  0  0
    9.8671   -2.6751    0.0000 C   0  0  0  0  0  0  0  0  0  0  0  0
    3.4030   -0.9431    0.0000 C   0  0  0  0  0  0  0  0  0  0  0  0
    7.3671    3.3870    0.0000 C   0  0  0  0  0  0  0  0  0  0  0  0
    9.1771    1.3259    0.0000 H   0  0  0  0  0  0  0  0  0  0  0  0
    7.6771   -0.6140    0.0000 H   0  0  0  0  0  0  0  0  0  0  0  0
    8.0571    2.1919    0.0000 H   0  0  0  0  0  0  0  0  0  0  0  0
    8.9871   -0.0771    0.0000 H   0  0  0  0  0  0  0  0  0  0  0  0
    6.5571    0.2520    0.0000 H   0  0  0  0  0  0  0  0  0  0  0  0
    7.4747    2.2656    0.0000 H   0  0  0  0  0  0  0  0  0  0  0  0
    6.7844    1.8670    0.0000 H   0  0  0  0  0  0  0  0  0  0  0  0
    9.7471   -0.0771    0.0000 H   0  0  0  0  0  0  0  0  0  0  0  0
    6.5380   -1.7531    0.0000 H   0  0  0  0  0  0  0  0  0  0  0  0
   11.0571    0.4599    0.0000 H   0  0  0  0  0  0  0  0  0  0  0  0
    9.4871    2.5210    0.0000 H   0  0  0  0  0  0  0  0  0  0  0  0
   12.1771   -0.4061    0.0000 H   0  0  0  0  0  0  0  0  0  0  0  0
    6.0010   -3.0631    0.0000 H   0  0  0  0  0  0  0  0  0  0  0  0
    5.5571    1.3259    0.0000 H   0  0  0  0  0  0  0  0  0  0  0  0
    5.5571    0.2520    0.0000 H   0  0  0  0  0  0  0  0  0  0  0  0
   11.9871   -1.8091    0.0000 H   0  0  0  0  0  0  0  0  0  0  0  0
    4.5981   -3.2531    0.0000 H   0  0  0  0  0  0  0  0  0  0  0  0
    9.7471   -1.8091    0.0000 H   0  0  0  0  0  0  0  0  0  0  0  0
    4.2690   -3.0631    0.0000 H   0  0  0  0  0  0  0  0  0  0  0  0
    4.2690   -0.8231    0.0000 H   0  0  0  0  0  0  0  0  0  0  0  0
    8.5571   -1.4800    0.0000 H   0  0  0  0  0  0  0  0  0  0  0  0
    9.7594   -3.2857    0.0000 H   0  0  0  0  0  0  0  0  0  0  0  0
   10.4497   -2.8872    0.0000 H   0  0  0  0  0  0  0  0  0  0  0  0
    3.8015   -0.4681    0.0000 H   0  0  0  0  0  0  0  0  0  0  0  0
    3.0044   -0.4681    0.0000 H   0  0  0  0  0  0  0  0  0  0  0  0
   13.1771   -1.4800    0.0000 H   0  0  0  0  0  0  0  0  0  0  0  0
   13.1771   -0.4061    0.0000 H   0  0  0  0  0  0  0  0  0  0  0  0
   12.4871    0.7890    0.0000 H   0  0  0  0  0  0  0  0  0  0  0  0
    6.8671   -3.5631    0.0000 H   0  0  0  0  0  0  0  0  0  0  0  0
   11.5571   -3.2121    0.0000 H   0  0  0  0  0  0  0  0  0  0  0  0
    4.5981   -4.2531    0.0000 H   0  0  0  0  0  0  0  0  0  0  0  0
    3.4030   -3.5631    0.0000 H   0  0  0  0  0  0  0  0  0  0  0  0
    6.7844    3.1750    0.0000 H   0  0  0  0  0  0  0  0  0  0  0  0
    7.4747    2.7765    0.0000 H   0  0  0  0  0  0  0  0  0  0  0  0
    2.0000   -1.1331    0.0000 H   0  0  0  0  0  0  0  0  0  0  0  0
    2.5369   -2.0631    0.0000 H   0  0  0  0  0  0  0  0  0  0  0  0
    8.5571   -3.2121    0.0000 H   0  0  0  0  0  0  0  0  0  0  0  0
 20  1  1  6  0  0  0
 26  1  1  6  0  0  0
 21  2  1  1  0  0  0
 27  2  1  1  0  0  0
  3 23  1  0  0  0  0
  3 60  1  0  0  0  0
  4 26  1  0  0  0  0
  4 33  1  0  0  0  0
  5 27  1  0  0  0  0
  5 35  1  0  0  0  0
  6 28  1  0  0  0  0
  6 67  1  0  0  0  0
 30  7  1  6  0  0  0
  7 68  1  0  0  0  0
 31  8  1  6  0  0  0
  8 69  1  0  0  0  0
  9 32  1  0  0  0  0
  9 70  1  0  0  0  0
 34 10  1  1  0  0  0
 10 71  1  0  0  0  0
 11 37  1  0  0  0  0
 11 76  1  0  0  0  0
 12 36  2  0  0  0  0
 22 13  1  1  0  0  0
 13 36  1  0  0  0  0
 13 50  1  0  0  0  0
 14 24  1  0  0  0  0
 14 53  1  0  0  0  0
 14 54  1  0  0  0  0
 29 15  1  1  0  0  0
 15 65  1  0  0  0  0
 15 66  1  0  0  0  0
 16 38  1  0  0  0  0
 16 74  1  0  0  0  0
 16 75  1  0  0  0  0
 17 18  2  0  0  0  0
 17 39  1  0  0  0  0
 18 19  2  0  0  0  0
 20 22  1  0  0  0  0
 20 23  1  0  0  0  0
 20 40  1  0  0  0  0
 21 23  1  0  0  0  0
 21 24  1  0  0  0  0
 21 41  1  0  0  0  0
 22 25  1  0  0  0  0
 22 42  1  0  0  0  0
 23 43  1  0  0  0  0
 24 25  1  0  0  0  0
 24 44  1  0  0  0  0
 25 45  1  0  0  0  0
 25 46  1  0  0  0  0
 26 28  1  0  0  0  0
 26 47  1  0  0  0  0
 27 30  1  0  0  0  0
 27 48  1  0  0  0  0
 28 29  1  0  0  0  0
 28 49  1  0  0  0  0
 29 31  1  0  0  0  0
 29 51  1  0  0  0  0
 30 32  1  0  0  0  0
 30 52  1  0  0  0  0
 31 33  1  0  0  0  0
 31 55  1  0  0  0  0
 32 34  1  0  0  0  0
 32 56  1  0  0  0  0
 33 37  1  0  0  0  0
 33 57  1  0  0  0  0
 34 35  1  0  0  0  0
 34 58  1  0  0  0  0
 35 38  1  0  0  0  0
 35 59  1  0  0  0  0
 36 39  1  0  0  0  0
 37 61  1  0  0  0  0
 37 62  1  0  0  0  0
 38 63  1  0  0  0  0
 38 64  1  0  0  0  0
 39 72  1  0  0  0  0
 39 73  1  0  0  0  0
M  CHG  2  18   1  19  -1
M  END
> <PUBCHEM_COMPOUND_CID>
58372900

> <PUBCHEM_COMPOUND_CANONICALIZED>
1

> <PUBCHEM_CACTVS_COMPLEXITY>
871

> <PUBCHEM_CACTVS_HBOND_ACCEPTOR>
17

> <PUBCHEM_CACTVS_HBOND_DONOR>
11

> <PUBCHEM_CACTVS_ROTATABLE_BOND>
9

> <PUBCHEM_CACTVS_SUBSKEYS>
AAADcfB7vAAAAAAAAAAAAAAAAAAAAAAAAAA0SIAAAAAAAAAAAAAAHgAYCAAACDzxgAcACALABgAKAAEQEAAAAAAAAAAAAICIAAATUAIAwAA3QAAHFgCXAAHwcA8AAAAAAAAAAAAAgAAUCACgAAAAAAAAAA==

> <PUBCHEM_IUPAC_OPENEYE_NAME>
N-[(1R,2S,4S)-5-amino-2-[(2S,4S,5S)-4-amino-3,5-dihydroxy-6-(hydroxymethyl)tetrahydropyran-2-yl]oxy-4-[(2S,3R,5R)-6-(aminomethyl)-3,4,5-trihydroxy-tetrahydropyran-2-yl]oxy-3-hydroxy-cyclohexyl]-2-azido-acetamide

> <PUBCHEM_IUPAC_CAS_NAME>
N-[(1R,2S,4S)-5-amino-2-[[(2S,4S,5S)-4-amino-3,5-dihydroxy-6-(hydroxymethyl)-2-oxanyl]oxy]-4-[[(2S,3R,5R)-6-(aminomethyl)-3,4,5-trihydroxy-2-oxanyl]oxy]-3-hydroxycyclohexyl]-2-azidoacetamide

> <PUBCHEM_IUPAC_NAME_MARKUP>
<I>N</I>-[(1<I>R</I>,2<I>S</I>,4<I>S</I>)-5-amino-2-[(2<I>S</I>,4<I>S</I>,5<I>S</I>)-4-amino-3,5-dihydroxy-6-(hydroxymethyl)oxan-2-yl]oxy-4-[(2<I>S</I>,3<I>R</I>,5<I>R</I>)-6-(aminomethyl)-3,4,5-trihydroxyoxan-2-yl]oxy-3-hydroxycyclohexyl]-2-azidoacetamide

> <PUBCHEM_IUPAC_NAME>
N-[(1R,2S,4S)-5-amino-2-[(2S,4S,5S)-4-amino-3,5-dihydroxy-6-(hydroxymethyl)oxan-2-yl]oxy-4-[(2S,3R,5R)-6-(aminomethyl)-3,4,5-trihydroxyoxan-2-yl]oxy-3-hydroxycyclohexyl]-2-azidoacetamide

> <PUBCHEM_IUPAC_SYSTEMATIC_NAME>
N-[(1R,2S,4S)-4-[(2S,3R,5R)-6-(aminomethyl)-3,4,5-tris(oxidanyl)oxan-2-yl]oxy-5-azanyl-2-[(2S,4S,5S)-4-azanyl-6-(hydroxymethyl)-3,5-bis(oxidanyl)oxan-2-yl]oxy-3-oxidanyl-cyclohexyl]-2-azido-ethanamide

> <PUBCHEM_IUPAC_TRADITIONAL_NAME>
N-[(1R,2S,4S)-5-amino-2-[(2S,4S,5S)-4-amino-3,5-dihydroxy-6-methylol-tetrahydropyran-2-yl]oxy-4-[(2S,3R,5R)-6-(aminomethyl)-3,4,5-trihydroxy-tetrahydropyran-2-yl]oxy-3-hydroxy-cyclohexyl]-2-azido-acetamide

> <PUBCHEM_IUPAC_INCHI>
InChI=1S/C20H37N7O12/c21-2-7-12(31)14(33)15(34)20(36-7)38-17-5(22)1-6(26-9(29)3-25-27-24)18(16(17)35)39-19-13(32)10(23)11(30)8(4-28)37-19/h5-8,10-20,28,30-35H,1-4,21-23H2,(H,26,29)/t5?,6-,7?,8?,10+,11-,12+,13?,14?,15-,16?,17+,18+,19-,20+/m1/s1

> <PUBCHEM_IUPAC_INCHIKEY>
HVDPNMVCTDDQFO-JQSRLNNRSA-N

> <PUBCHEM_XLOGP3_AA>
-5.6

> <PUBCHEM_EXACT_MASS>
567.25001964

> <PUBCHEM_MOLECULAR_FORMULA>
C20H37N7O12

> <PUBCHEM_MOLECULAR_WEIGHT>
567.5

> <PUBCHEM_OPENEYE_CAN_SMILES>
C1C(C(C(C(C1NC(=O)CN=[N+]=[N-])OC2C(C(C(C(O2)CO)O)N)O)O)OC3C(C(C(C(O3)CN)O)O)O)N

> <PUBCHEM_OPENEYE_ISO_SMILES>
C1[C@H]([C@@H](C([C@H](C1N)O[C@H]2[C@@H](C([C@H](C(O2)CN)O)O)O)O)O[C@@H]3C([C@H]([C@@H](C(O3)CO)O)N)O)NC(=O)CN=[N+]=[N-]

> <PUBCHEM_CACTVS_TPSA>
300

> <PUBCHEM_MONOISOTOPIC_WEIGHT>
567.25001964

> <PUBCHEM_TOTAL_CHARGE>
0

> <PUBCHEM_HEAVY_ATOM_COUNT>
39

> <PUBCHEM_ATOM_DEF_STEREO_COUNT>
9

> <PUBCHEM_ATOM_UDEF_STEREO_COUNT>
6

> <PUBCHEM_BOND_DEF_STEREO_COUNT>
0

> <PUBCHEM_BOND_UDEF_STEREO_COUNT>
0

> <PUBCHEM_ISOTOPIC_ATOM_COUNT>
0

> <PUBCHEM_COMPONENT_COUNT>
1

> <PUBCHEM_CACTVS_TAUTO_COUNT>
-1

> <PUBCHEM_COORDINATE_TYPE>
1
5
255

> <PUBCHEM_BONDANNOTATIONS>
20  1  6
26  1  6
34  10  5
22  13  5
24  14  3
29  15  5
21  2  5
27  2  5
23  3  3
33  37  3
35  38  3
28  6  3
30  7  6
31  8  6
32  9  3

$$$$
