 
  -OEChem-10192104382D

 75 75  0     1  0  0  0  0  0999 V2000
    4.2690   -4.0950    0.0000 O   0  0  0  0  0  0  0  0  0  0  0  0
    6.0010   -4.0950    0.0000 O   0  0  0  0  0  0  0  0  0  0  0  0
    4.2690   -7.0950    0.0000 O   0  0  0  0  0  0  0  0  0  0  0  0
    2.5369   -6.0950    0.0000 O   0  0  0  0  0  0  0  0  0  0  0  0
    6.0010   -6.0950    0.0000 O   0  0  0  0  0  0  0  0  0  0  0  0
   10.3312    1.4050    0.0000 O   0  0  0  0  0  0  0  0  0  0  0  0
    9.4651    4.9050    0.0000 O   0  0  0  0  0  0  0  0  0  0  0  0
    6.8671    4.4050    0.0000 O   0  0  0  0  0  0  0  0  0  0  0  0
   12.9292    5.9050    0.0000 O   0  0  0  0  0  0  0  0  0  0  0  0
    8.5991    1.4050    0.0000 N   0  0  0  0  0  0  0  0  0  0  0  0
   10.3312    3.4050    0.0000 N   0  0  0  0  0  0  0  0  0  0  0  0
   11.1972    5.9050    0.0000 N   0  0  0  0  0  0  0  0  0  0  0  0
    7.7331    5.9050    0.0000 N   0  0  0  0  0  0  0  0  0  0  0  0
    4.2690   -6.0950    0.0000 C   0  0  2  0  0  0  0  0  0  0  0  0
    3.4030   -5.5950    0.0000 C   0  0  1  0  0  0  0  0  0  0  0  0
    5.1350   -5.5950    0.0000 C   0  0  1  0  0  0  0  0  0  0  0  0
    3.4030   -4.5950    0.0000 C   0  0  2  0  0  0  0  0  0  0  0  0
    5.1350   -4.5950    0.0000 C   0  0  2  0  0  0  0  0  0  0  0  0
    2.5369   -4.0950    0.0000 C   0  0  0  0  0  0  0  0  0  0  0  0
    6.0010   -3.0950    0.0000 C   0  0  0  0  0  0  0  0  0  0  0  0
    6.8671   -2.5950    0.0000 C   0  0  0  0  0  0  0  0  0  0  0  0
    6.8671   -1.5950    0.0000 C   0  0  0  0  0  0  0  0  0  0  0  0
    7.7331   -1.0950    0.0000 C   0  0  0  0  0  0  0  0  0  0  0  0
    7.7331   -0.0950    0.0000 C   0  0  0  0  0  0  0  0  0  0  0  0
    8.5991    0.4050    0.0000 C   0  0  0  0  0  0  0  0  0  0  0  0
    9.4651    2.9050    0.0000 C   0  0  1  0  0  0  0  0  0  0  0  0
    8.5991    3.4050    0.0000 C   0  0  0  0  0  0  0  0  0  0  0  0
    9.4651    1.9050    0.0000 C   0  0  0  0  0  0  0  0  0  0  0  0
    8.5991    4.4050    0.0000 C   0  0  0  0  0  0  0  0  0  0  0  0
   10.3312    4.4050    0.0000 C   0  0  0  0  0  0  0  0  0  0  0  0
   11.1972    4.9050    0.0000 C   0  0  2  0  0  0  0  0  0  0  0  0
    7.7331    4.9050    0.0000 C   0  0  0  0  0  0  0  0  0  0  0  0
   12.0632    4.4050    0.0000 C   0  0  0  0  0  0  0  0  0  0  0  0
   12.0632    6.4050    0.0000 C   0  0  0  0  0  0  0  0  0  0  0  0
   12.0632    7.4050    0.0000 C   0  0  0  0  0  0  0  0  0  0  0  0
    3.7320   -6.4050    0.0000 H   0  0  0  0  0  0  0  0  0  0  0  0
    3.4030   -6.2150    0.0000 H   0  0  0  0  0  0  0  0  0  0  0  0
    5.1350   -6.2150    0.0000 H   0  0  0  0  0  0  0  0  0  0  0  0
    3.4030   -3.9750    0.0000 H   0  0  0  0  0  0  0  0  0  0  0  0
    5.1350   -3.9750    0.0000 H   0  0  0  0  0  0  0  0  0  0  0  0
    2.8469   -3.5581    0.0000 H   0  0  0  0  0  0  0  0  0  0  0  0
    2.0000   -3.7850    0.0000 H   0  0  0  0  0  0  0  0  0  0  0  0
    2.2269   -4.6319    0.0000 H   0  0  0  0  0  0  0  0  0  0  0  0
    5.7890   -2.5124    0.0000 H   0  0  0  0  0  0  0  0  0  0  0  0
    5.3905   -3.2027    0.0000 H   0  0  0  0  0  0  0  0  0  0  0  0
    7.0791   -3.1776    0.0000 H   0  0  0  0  0  0  0  0  0  0  0  0
    7.4776   -2.4873    0.0000 H   0  0  0  0  0  0  0  0  0  0  0  0
    3.7320   -7.4050    0.0000 H   0  0  0  0  0  0  0  0  0  0  0  0
    2.0000   -5.7850    0.0000 H   0  0  0  0  0  0  0  0  0  0  0  0
    6.5380   -5.7850    0.0000 H   0  0  0  0  0  0  0  0  0  0  0  0
    6.6550   -1.0124    0.0000 H   0  0  0  0  0  0  0  0  0  0  0  0
    6.2565   -1.7027    0.0000 H   0  0  0  0  0  0  0  0  0  0  0  0
    7.9451   -1.6776    0.0000 H   0  0  0  0  0  0  0  0  0  0  0  0
    8.3437   -0.9873    0.0000 H   0  0  0  0  0  0  0  0  0  0  0  0
    7.5210    0.4876    0.0000 H   0  0  0  0  0  0  0  0  0  0  0  0
    7.1225   -0.2027    0.0000 H   0  0  0  0  0  0  0  0  0  0  0  0
    8.8112   -0.1776    0.0000 H   0  0  0  0  0  0  0  0  0  0  0  0
    9.2097    0.5127    0.0000 H   0  0  0  0  0  0  0  0  0  0  0  0
   10.0021    2.5950    0.0000 H   0  0  0  0  0  0  0  0  0  0  0  0
    8.0622    1.7150    0.0000 H   0  0  0  0  0  0  0  0  0  0  0  0
    7.9885    3.5127    0.0000 H   0  0  0  0  0  0  0  0  0  0  0  0
    8.3871    2.8224    0.0000 H   0  0  0  0  0  0  0  0  0  0  0  0
   10.8681    3.0950    0.0000 H   0  0  0  0  0  0  0  0  0  0  0  0
    9.2097    4.2973    0.0000 H   0  0  0  0  0  0  0  0  0  0  0  0
    8.8112    4.9876    0.0000 H   0  0  0  0  0  0  0  0  0  0  0  0
   10.6603    5.2150    0.0000 H   0  0  0  0  0  0  0  0  0  0  0  0
   11.7532    3.8681    0.0000 H   0  0  0  0  0  0  0  0  0  0  0  0
   12.6002    4.0950    0.0000 H   0  0  0  0  0  0  0  0  0  0  0  0
   12.3732    4.9419    0.0000 H   0  0  0  0  0  0  0  0  0  0  0  0
   10.6603    6.2150    0.0000 H   0  0  0  0  0  0  0  0  0  0  0  0
    7.1962    6.2150    0.0000 H   0  0  0  0  0  0  0  0  0  0  0  0
    8.2700    6.2150    0.0000 H   0  0  0  0  0  0  0  0  0  0  0  0
   12.6832    7.4050    0.0000 H   0  0  0  0  0  0  0  0  0  0  0  0
   12.0632    8.0250    0.0000 H   0  0  0  0  0  0  0  0  0  0  0  0
   11.4432    7.4050    0.0000 H   0  0  0  0  0  0  0  0  0  0  0  0
  1 17  1  0  0  0  0
  1 18  1  0  0  0  0
 18  2  1  6  0  0  0
  2 20  1  0  0  0  0
 14  3  1  6  0  0  0
  3 48  1  0  0  0  0
 15  4  1  6  0  0  0
  4 49  1  0  0  0  0
 16  5  1  1  0  0  0
  5 50  1  0  0  0  0
  6 28  2  0  0  0  0
  7 30  2  0  0  0  0
  8 32  2  0  0  0  0
  9 34  2  0  0  0  0
 10 25  1  0  0  0  0
 10 28  1  0  0  0  0
 10 60  1  0  0  0  0
 26 11  1  6  0  0  0
 11 30  1  0  0  0  0
 11 63  1  0  0  0  0
 31 12  1  1  0  0  0
 12 34  1  0  0  0  0
 12 70  1  0  0  0  0
 13 32  1  0  0  0  0
 13 71  1  0  0  0  0
 13 72  1  0  0  0  0
 14 15  1  0  0  0  0
 14 16  1  0  0  0  0
 14 36  1  0  0  0  0
 15 17  1  0  0  0  0
 15 37  1  0  0  0  0
 16 18  1  0  0  0  0
 16 38  1  0  0  0  0
 17 19  1  6  0  0  0
 17 39  1  0  0  0  0
 18 40  1  0  0  0  0
 19 41  1  0  0  0  0
 19 42  1  0  0  0  0
 19 43  1  0  0  0  0
 20 21  1  0  0  0  0
 20 44  1  0  0  0  0
 20 45  1  0  0  0  0
 21 22  1  0  0  0  0
 21 46  1  0  0  0  0
 21 47  1  0  0  0  0
 22 23  1  0  0  0  0
 22 51  1  0  0  0  0
 22 52  1  0  0  0  0
 23 24  1  0  0  0  0
 23 53  1  0  0  0  0
 23 54  1  0  0  0  0
 24 25  1  0  0  0  0
 24 55  1  0  0  0  0
 24 56  1  0  0  0  0
 25 57  1  0  0  0  0
 25 58  1  0  0  0  0
 26 27  1  0  0  0  0
 26 28  1  0  0  0  0
 26 59  1  0  0  0  0
 27 29  1  0  0  0  0
 27 61  1  0  0  0  0
 27 62  1  0  0  0  0
 29 32  1  0  0  0  0
 29 64  1  0  0  0  0
 29 65  1  0  0  0  0
 30 31  1  0  0  0  0
 31 33  1  0  0  0  0
 31 66  1  0  0  0  0
 33 67  1  0  0  0  0
 33 68  1  0  0  0  0
 33 69  1  0  0  0  0
 34 35  1  0  0  0  0
 35 73  1  0  0  0  0
 35 74  1  0  0  0  0
 35 75  1  0  0  0  0
M  END
> <PUBCHEM_COMPOUND_CID>
10601609

> <PUBCHEM_COMPOUND_CANONICALIZED>
1

> <PUBCHEM_CACTVS_COMPLEXITY>
708

> <PUBCHEM_CACTVS_HBOND_ACCEPTOR>
9

> <PUBCHEM_CACTVS_HBOND_DONOR>
7

> <PUBCHEM_CACTVS_ROTATABLE_BOND>
15

> <PUBCHEM_CACTVS_SUBSKEYS>
AAADcfB7vAAAAAAAAAAAAAAAAAAAAAAAAAAkAAAAAAAAAAAAAAAAHgAQCAAACDzxgAcCCALABgAIAAEQEAAAAAAAAAAAAIGIAAARUBIAgCA2QAAFFgCHAAHcYwwAAAAAAAAAAAAAAAAAAAAAAAAAAAAAAA==

> <PUBCHEM_IUPAC_OPENEYE_NAME>
(2S)-2-[[(2S)-2-acetamidopropanoyl]amino]-N-[6-[(2S,3S,4R,5S,6S)-3,4,5-trihydroxy-6-methyl-tetrahydropyran-2-yl]oxyhexyl]pentanediamide

> <PUBCHEM_IUPAC_CAS_NAME>
(2S)-2-[[(2S)-2-acetamido-1-oxopropyl]amino]-N-[6-[[(2S,3S,4R,5S,6S)-3,4,5-trihydroxy-6-methyl-2-oxanyl]oxy]hexyl]pentanediamide

> <PUBCHEM_IUPAC_NAME_MARKUP>
(2<I>S</I>)-2-[[(2<I>S</I>)-2-acetamidopropanoyl]amino]-<I>N</I>-[6-[(2<I>S</I>,3<I>S</I>,4<I>R</I>,5<I>S</I>,6<I>S</I>)-3,4,5-trihydroxy-6-methyloxan-2-yl]oxyhexyl]pentanediamide

> <PUBCHEM_IUPAC_NAME>
(2S)-2-[[(2S)-2-acetamidopropanoyl]amino]-N-[6-[(2S,3S,4R,5S,6S)-3,4,5-trihydroxy-6-methyloxan-2-yl]oxyhexyl]pentanediamide

> <PUBCHEM_IUPAC_SYSTEMATIC_NAME>
(2S)-2-[[(2S)-2-acetamidopropanoyl]amino]-N-[6-[(2S,3S,4R,5S,6S)-6-methyl-3,4,5-tris(oxidanyl)oxan-2-yl]oxyhexyl]pentanediamide

> <PUBCHEM_IUPAC_TRADITIONAL_NAME>
(2S)-2-[[(2S)-2-acetamidopropanoyl]amino]-N-[6-[(2S,3S,4R,5S,6S)-3,4,5-trihydroxy-6-methyl-tetrahydropyran-2-yl]oxyhexyl]glutaramide

> <PUBCHEM_IUPAC_INCHI>
InChI=1S/C22H40N4O9/c1-12(25-14(3)27)20(32)26-15(8-9-16(23)28)21(33)24-10-6-4-5-7-11-34-22-19(31)18(30)17(29)13(2)35-22/h12-13,15,17-19,22,29-31H,4-11H2,1-3H3,(H2,23,28)(H,24,33)(H,25,27)(H,26,32)/t12-,13-,15-,17+,18+,19-,22-/m0/s1

> <PUBCHEM_IUPAC_INCHIKEY>
MMQYEFOKIQJJBP-MEVAYZKTSA-N

> <PUBCHEM_XLOGP3_AA>
-2.5

> <PUBCHEM_EXACT_MASS>
504.27952887

> <PUBCHEM_MOLECULAR_FORMULA>
C22H40N4O9

> <PUBCHEM_MOLECULAR_WEIGHT>
504.6

> <PUBCHEM_OPENEYE_CAN_SMILES>
CC1C(C(C(C(O1)OCCCCCCNC(=O)C(CCC(=O)N)NC(=O)C(C)NC(=O)C)O)O)O

> <PUBCHEM_OPENEYE_ISO_SMILES>
C[C@H]1[C@H]([C@H]([C@@H]([C@H](O1)OCCCCCCNC(=O)[C@H](CCC(=O)N)NC(=O)[C@H](C)NC(=O)C)O)O)O

> <PUBCHEM_CACTVS_TPSA>
210

> <PUBCHEM_MONOISOTOPIC_WEIGHT>
504.27952887

> <PUBCHEM_TOTAL_CHARGE>
0

> <PUBCHEM_HEAVY_ATOM_COUNT>
35

> <PUBCHEM_ATOM_DEF_STEREO_COUNT>
7

> <PUBCHEM_ATOM_UDEF_STEREO_COUNT>
0

> <PUBCHEM_BOND_DEF_STEREO_COUNT>
0

> <PUBCHEM_BOND_UDEF_STEREO_COUNT>
0

> <PUBCHEM_ISOTOPIC_ATOM_COUNT>
0

> <PUBCHEM_COMPONENT_COUNT>
1

> <PUBCHEM_CACTVS_TAUTO_COUNT>
-1

> <PUBCHEM_COORDINATE_TYPE>
1
5
255

> <PUBCHEM_BONDANNOTATIONS>
26  11  6
31  12  5
17  19  6
18  2  6
14  3  6
15  4  6
16  5  5

$$$$
