 
  -OEChem-10192103482D

 35 36  0     1  0  0  0  0  0999 V2000
    6.4933    2.9775    0.0000 O   0  0  0  0  0  0  0  0  0  0  0  0
    3.1778    2.4775    0.0000 O   0  0  0  0  0  0  0  0  0  0  0  0
    2.2410   -0.9734    0.0000 O   0  0  0  0  0  0  0  0  0  0  0  0
    3.3462   -2.9568    0.0000 O   0  0  0  0  0  0  0  0  0  0  0  0
    4.8203    3.4258    0.0000 O   0  0  0  0  0  0  0  0  0  0  0  0
    2.4707    1.7704    0.0000 O   0  0  0  0  0  0  0  0  0  0  0  0
    2.0000    0.7418    0.0000 O   0  0  0  0  0  0  0  0  0  0  0  0
    5.0772   -2.8963    0.0000 O   0  0  0  0  0  0  0  0  0  0  0  0
    5.6392    0.4041    0.0000 C   0  0  3  0  0  0  0  0  0  0  0  0
    5.3804   -0.5618    0.0000 C   0  0  3  0  0  0  0  0  0  0  0  0
    5.2686    1.7528    0.0000 C   0  0  3  0  0  0  0  0  0  0  0  0
    4.4026    1.2528    0.0000 C   0  0  3  0  0  0  0  0  0  0  0  0
    3.6059    0.0930    0.0000 C   0  0  3  0  0  0  0  0  0  0  0  0
    4.1593   -1.4275    0.0000 C   0  0  3  0  0  0  0  0  0  0  0  0
    3.3303   -0.8683    0.0000 C   0  0  0  0  0  0  0  0  0  0  0  0
    7.0381   -0.1047    0.0000 C   0  0  0  0  0  0  0  0  0  0  0  0
    6.7793   -1.0706    0.0000 C   0  0  0  0  0  0  0  0  0  0  0  0
    5.5274    2.7187    0.0000 C   0  0  0  0  0  0  0  0  0  0  0  0
    3.4366    1.5116    0.0000 C   0  0  0  0  0  0  0  0  0  0  0  0
    2.6157   -0.0462    0.0000 C   0  0  0  0  0  0  0  0  0  0  0  0
    4.1942   -2.4268    0.0000 C   0  0  0  0  0  0  0  0  0  0  0  0
    5.5782   -0.2129    0.0000 H   0  0  0  0  0  0  0  0  0  0  0  0
    5.4632   -1.1762    0.0000 H   0  0  0  0  0  0  0  0  0  0  0  0
    5.8886    1.7547    0.0000 H   0  0  0  0  0  0  0  0  0  0  0  0
    4.3216    1.8675    0.0000 H   0  0  0  0  0  0  0  0  0  0  0  0
    3.5159    0.7064    0.0000 H   0  0  0  0  0  0  0  0  0  0  0  0
    3.6171   -1.7280    0.0000 H   0  0  0  0  0  0  0  0  0  0  0  0
    2.7554   -0.6360    0.0000 H   0  0  0  0  0  0  0  0  0  0  0  0
    3.0392   -1.4157    0.0000 H   0  0  0  0  0  0  0  0  0  0  0  0
    7.5880    0.1817    0.0000 H   0  0  0  0  0  0  0  0  0  0  0  0
    7.0656   -1.6205    0.0000 H   0  0  0  0  0  0  0  0  0  0  0  0
    6.6538    3.5764    0.0000 H   0  0  0  0  0  0  0  0  0  0  0  0
    2.5789    2.6380    0.0000 H   0  0  0  0  0  0  0  0  0  0  0  0
    2.6228   -1.4619    0.0000 H   0  0  0  0  0  0  0  0  0  0  0  0
    3.3678   -3.5764    0.0000 H   0  0  0  0  0  0  0  0  0  0  0  0
  1 18  1  0  0  0  0
  1 32  1  0  0  0  0
  2 19  1  0  0  0  0
  2 33  1  0  0  0  0
  3 20  1  0  0  0  0
  3 34  1  0  0  0  0
  4 21  1  0  0  0  0
  4 35  1  0  0  0  0
  5 18  2  0  0  0  0
  6 19  2  0  0  0  0
  7 20  2  0  0  0  0
  8 21  2  0  0  0  0
  9 11  1  0  0  0  0
  9 13  1  0  0  0  0
  9 16  1  0  0  0  0
  9 22  1  0  0  0  0
 10 12  1  0  0  0  0
 10 14  1  0  0  0  0
 10 17  1  0  0  0  0
 10 23  1  0  0  0  0
 11 12  1  0  0  0  0
 11 18  1  0  0  0  0
 11 24  1  0  0  0  0
 12 19  1  0  0  0  0
 12 25  1  0  0  0  0
 13 15  1  0  0  0  0
 13 20  1  0  0  0  0
 13 26  1  0  0  0  0
 14 15  1  0  0  0  0
 14 21  1  0  0  0  0
 14 27  1  0  0  0  0
 15 28  1  0  0  0  0
 15 29  1  0  0  0  0
 16 17  2  0  0  0  0
 16 30  1  0  0  0  0
 17 31  1  0  0  0  0
M  END
> <PUBCHEM_COMPOUND_CID>
90219109

> <PUBCHEM_COMPOUND_CANONICALIZED>
1

> <PUBCHEM_CACTVS_COMPLEXITY>
490

> <PUBCHEM_CACTVS_HBOND_ACCEPTOR>
8

> <PUBCHEM_CACTVS_HBOND_DONOR>
4

> <PUBCHEM_CACTVS_ROTATABLE_BOND>
4

> <PUBCHEM_CACTVS_SUBSKEYS>
AAADccBwPAAAAAAAAAAAAAAAAAAAAAAAAAAgAAAABggAAAAAAAAAGgAACAAADQCAgAAACAAAAgCIACDSCAAAAAAgAAAICAEAAAgAABIAAQAAQAAEgAAIAAPL7vCOgAAAAAAAAAAAAAAAAAAAAAAAAAAAAA==

> <PUBCHEM_IUPAC_OPENEYE_NAME>
bicyclo[3.2.2]non-8-ene-2,4,6,7-tetracarboxylic acid

> <PUBCHEM_IUPAC_CAS_NAME>
bicyclo[3.2.2]non-8-ene-2,4,6,7-tetracarboxylic acid

> <PUBCHEM_IUPAC_NAME_MARKUP>
bicyclo[3.2.2]non-8-ene-2,4,6,7-tetracarboxylic acid

> <PUBCHEM_IUPAC_NAME>
bicyclo[3.2.2]non-8-ene-2,4,6,7-tetracarboxylic acid

> <PUBCHEM_IUPAC_SYSTEMATIC_NAME>
bicyclo[3.2.2]non-8-ene-2,4,6,7-tetracarboxylic acid

> <PUBCHEM_IUPAC_TRADITIONAL_NAME>
bicyclo[3.2.2]non-8-ene-2,4,6,7-tetracarboxylic acid

> <PUBCHEM_IUPAC_INCHI>
InChI=1S/C13H14O8/c14-10(15)6-3-7(11(16)17)5-2-1-4(6)8(12(18)19)9(5)13(20)21/h1-2,4-9H,3H2,(H,14,15)(H,16,17)(H,18,19)(H,20,21)

> <PUBCHEM_IUPAC_INCHIKEY>
GVHMYUJTKVVHCZ-UHFFFAOYSA-N

> <PUBCHEM_XLOGP3_AA>
-0.8

> <PUBCHEM_EXACT_MASS>
298.06886740

> <PUBCHEM_MOLECULAR_FORMULA>
C13H14O8

> <PUBCHEM_MOLECULAR_WEIGHT>
298.24

> <PUBCHEM_OPENEYE_CAN_SMILES>
C1C(C2C=CC(C1C(=O)O)C(C2C(=O)O)C(=O)O)C(=O)O

> <PUBCHEM_OPENEYE_ISO_SMILES>
C1C(C2C=CC(C1C(=O)O)C(C2C(=O)O)C(=O)O)C(=O)O

> <PUBCHEM_CACTVS_TPSA>
149

> <PUBCHEM_MONOISOTOPIC_WEIGHT>
298.06886740

> <PUBCHEM_TOTAL_CHARGE>
0

> <PUBCHEM_HEAVY_ATOM_COUNT>
21

> <PUBCHEM_ATOM_DEF_STEREO_COUNT>
0

> <PUBCHEM_ATOM_UDEF_STEREO_COUNT>
6

> <PUBCHEM_BOND_DEF_STEREO_COUNT>
0

> <PUBCHEM_BOND_UDEF_STEREO_COUNT>
0

> <PUBCHEM_ISOTOPIC_ATOM_COUNT>
0

> <PUBCHEM_COMPONENT_COUNT>
1

> <PUBCHEM_CACTVS_TAUTO_COUNT>
-1

> <PUBCHEM_COORDINATE_TYPE>
1
5
255

> <PUBCHEM_BONDANNOTATIONS>
10  17  3
11  18  3
12  19  3
13  20  3
14  21  3
9  16  3

$$$$
