 
  -OEChem-10192104272D

 35 35  0     1  0  0  0  0  0999 V2000
    6.2824    2.0194    0.0000 O   0  5  0  0  0  0  0  0  0  0  0  0
    8.0145    2.0194    0.0000 O   0  5  0  0  0  0  0  0  0  0  0  0
    5.4164    0.5194    0.0000 O   0  0  0  0  0  0  0  0  0  0  0  0
    8.8805    0.5194    0.0000 O   0  0  0  0  0  0  0  0  0  0  0  0
    7.1485   -0.4806    0.0000 C   0  0  3  0  0  0  0  0  0  0  0  0
    6.3395   -1.0684    0.0000 C   0  0  0  0  0  0  0  0  0  0  0  0
    7.9575   -1.0684    0.0000 C   0  0  0  0  0  0  0  0  0  0  0  0
    7.6485   -2.0194    0.0000 C   0  0  0  0  0  0  0  0  0  0  0  0
    7.1485    0.5194    0.0000 C   0  0  0  0  0  0  0  0  0  0  0  0
    5.3884   -0.7593    0.0000 C   0  0  0  0  0  0  0  0  0  0  0  0
    6.6485   -2.0194    0.0000 C   0  0  0  0  0  0  0  0  0  0  0  0
    4.6453   -1.4285    0.0000 C   0  0  0  0  0  0  0  0  0  0  0  0
    3.6942   -1.1195    0.0000 C   0  0  0  0  0  0  0  0  0  0  0  0
    6.2824    1.0194    0.0000 C   0  0  0  0  0  0  0  0  0  0  0  0
    8.0145    1.0194    0.0000 C   0  0  0  0  0  0  0  0  0  0  0  0
    2.9511   -1.7886    0.0000 C   0  0  0  0  0  0  0  0  0  0  0  0
    2.0000   -1.4796    0.0000 C   0  0  0  0  0  0  0  0  0  0  0  0
    7.7009   -0.1991    0.0000 H   0  0  0  0  0  0  0  0  0  0  0  0
    8.5239   -1.3205    0.0000 H   0  0  0  0  0  0  0  0  0  0  0  0
    8.2675   -0.5314    0.0000 H   0  0  0  0  0  0  0  0  0  0  0  0
    7.5837   -2.6360    0.0000 H   0  0  0  0  0  0  0  0  0  0  0  0
    8.2549   -2.1483    0.0000 H   0  0  0  0  0  0  0  0  0  0  0  0
    7.1485    1.1394    0.0000 H   0  0  0  0  0  0  0  0  0  0  0  0
    5.6795   -0.2119    0.0000 H   0  0  0  0  0  0  0  0  0  0  0  0
    4.8998   -0.3776    0.0000 H   0  0  0  0  0  0  0  0  0  0  0  0
    6.2840   -2.5210    0.0000 H   0  0  0  0  0  0  0  0  0  0  0  0
    4.3542   -1.9759    0.0000 H   0  0  0  0  0  0  0  0  0  0  0  0
    5.1338   -1.8102    0.0000 H   0  0  0  0  0  0  0  0  0  0  0  0
    3.9853   -0.5720    0.0000 H   0  0  0  0  0  0  0  0  0  0  0  0
    3.2056   -0.7378    0.0000 H   0  0  0  0  0  0  0  0  0  0  0  0
    2.6600   -2.3360    0.0000 H   0  0  0  0  0  0  0  0  0  0  0  0
    3.4396   -2.1703    0.0000 H   0  0  0  0  0  0  0  0  0  0  0  0
    2.1916   -0.8899    0.0000 H   0  0  0  0  0  0  0  0  0  0  0  0
    1.4103   -1.2880    0.0000 H   0  0  0  0  0  0  0  0  0  0  0  0
    1.8084   -2.0692    0.0000 H   0  0  0  0  0  0  0  0  0  0  0  0
  1 14  1  0  0  0  0
  2 15  1  0  0  0  0
  3 14  2  0  0  0  0
  4 15  2  0  0  0  0
  5  6  1  0  0  0  0
  5  7  1  0  0  0  0
  5  9  1  0  0  0  0
  5 18  1  0  0  0  0
  6 10  1  0  0  0  0
  6 11  2  0  0  0  0
  7  8  1  0  0  0  0
  7 19  1  0  0  0  0
  7 20  1  0  0  0  0
  8 11  1  0  0  0  0
  8 21  1  0  0  0  0
  8 22  1  0  0  0  0
  9 14  1  0  0  0  0
  9 15  1  0  0  0  0
  9 23  1  0  0  0  0
 10 12  1  0  0  0  0
 10 24  1  0  0  0  0
 10 25  1  0  0  0  0
 11 26  1  0  0  0  0
 12 13  1  0  0  0  0
 12 27  1  0  0  0  0
 12 28  1  0  0  0  0
 13 16  1  0  0  0  0
 13 29  1  0  0  0  0
 13 30  1  0  0  0  0
 16 17  1  0  0  0  0
 16 31  1  0  0  0  0
 16 32  1  0  0  0  0
 17 33  1  0  0  0  0
 17 34  1  0  0  0  0
 17 35  1  0  0  0  0
M  CHG  2   1  -1   2  -1
M  END
> <PUBCHEM_COMPOUND_CID>
21185326

> <PUBCHEM_COMPOUND_CANONICALIZED>
1

> <PUBCHEM_CACTVS_COMPLEXITY>
294

> <PUBCHEM_CACTVS_HBOND_ACCEPTOR>
4

> <PUBCHEM_CACTVS_HBOND_DONOR>
0

> <PUBCHEM_CACTVS_ROTATABLE_BOND>
5

> <PUBCHEM_CACTVS_SUBSKEYS>
AAADceBwOAAAAAAAAAAAAAAAAAAAAQAAAAAAAAAAAAAAAAAAAAAAGgAAAAAADQCAgAACCAAAAACIAiDSCAAAAAAgAAAACAEAAAgAABYIAQAAAAAFoAAIAAOIyOCOgAAAAAAAAAAAAAAAAAAAAAAAAAAAAA==

> <PUBCHEM_IUPAC_OPENEYE_NAME>
2-(2-pentylcyclopent-2-en-1-yl)propanedioate

> <PUBCHEM_IUPAC_CAS_NAME>
2-(2-pentyl-1-cyclopent-2-enyl)propanedioate

> <PUBCHEM_IUPAC_NAME_MARKUP>
2-(2-pentylcyclopent-2-en-1-yl)propanedioate

> <PUBCHEM_IUPAC_NAME>
2-(2-pentylcyclopent-2-en-1-yl)propanedioate

> <PUBCHEM_IUPAC_SYSTEMATIC_NAME>
2-(2-pentylcyclopent-2-en-1-yl)propanedioate

> <PUBCHEM_IUPAC_TRADITIONAL_NAME>
2-(2-amylcyclopent-2-en-1-yl)malonate

> <PUBCHEM_IUPAC_INCHI>
InChI=1S/C13H20O4/c1-2-3-4-6-9-7-5-8-10(9)11(12(14)15)13(16)17/h7,10-11H,2-6,8H2,1H3,(H,14,15)(H,16,17)/p-2

> <PUBCHEM_IUPAC_INCHIKEY>
MJODAUCTKJNPNS-UHFFFAOYSA-L

> <PUBCHEM_XLOGP3_AA>
4.3

> <PUBCHEM_EXACT_MASS>
238.12050905

> <PUBCHEM_MOLECULAR_FORMULA>
C13H18O4-2

> <PUBCHEM_MOLECULAR_WEIGHT>
238.28

> <PUBCHEM_OPENEYE_CAN_SMILES>
CCCCCC1=CCCC1C(C(=O)[O-])C(=O)[O-]

> <PUBCHEM_OPENEYE_ISO_SMILES>
CCCCCC1=CCCC1C(C(=O)[O-])C(=O)[O-]

> <PUBCHEM_CACTVS_TPSA>
80.3

> <PUBCHEM_MONOISOTOPIC_WEIGHT>
238.12050905

> <PUBCHEM_TOTAL_CHARGE>
-2

> <PUBCHEM_HEAVY_ATOM_COUNT>
17

> <PUBCHEM_ATOM_DEF_STEREO_COUNT>
0

> <PUBCHEM_ATOM_UDEF_STEREO_COUNT>
1

> <PUBCHEM_BOND_DEF_STEREO_COUNT>
0

> <PUBCHEM_BOND_UDEF_STEREO_COUNT>
0

> <PUBCHEM_ISOTOPIC_ATOM_COUNT>
0

> <PUBCHEM_COMPONENT_COUNT>
1

> <PUBCHEM_CACTVS_TAUTO_COUNT>
-1

> <PUBCHEM_COORDINATE_TYPE>
1
5
255

> <PUBCHEM_BONDANNOTATIONS>
5  9  3

$$$$
