 
  -OEChem-10192103592D

 62 61  0     1  0  0  0  0  0999 V2000
    3.4030   -2.0000    0.0000 P   0  0  0  0  0  0  0  0  0  0  0  0
    7.7331   -1.5000    0.0000 O   0  0  0  0  0  0  0  0  0  0  0  0
    8.5991   -3.0000    0.0000 O   0  0  0  0  0  0  0  0  0  0  0  0
    6.0010   -0.5000    0.0000 O   0  0  0  0  0  0  0  0  0  0  0  0
    4.2690   -1.5000    0.0000 O   0  0  0  0  0  0  0  0  0  0  0  0
    2.5369   -2.5000    0.0000 O   0  0  0  0  0  0  0  0  0  0  0  0
    2.9030   -1.1340    0.0000 O   0  0  0  0  0  0  0  0  0  0  0  0
    3.9030   -2.8660    0.0000 O   0  0  0  0  0  0  0  0  0  0  0  0
   12.0632   -2.0000    0.0000 C   0  0  0  0  0  0  0  0  0  0  0  0
   11.1972   -1.5000    0.0000 C   0  0  0  0  0  0  0  0  0  0  0  0
   12.9292   -1.5000    0.0000 C   0  0  0  0  0  0  0  0  0  0  0  0
   13.7953   -2.0000    0.0000 C   0  0  0  0  0  0  0  0  0  0  0  0
   10.3312   -2.0000    0.0000 C   0  0  0  0  0  0  0  0  0  0  0  0
   14.6613   -1.5000    0.0000 C   0  0  0  0  0  0  0  0  0  0  0  0
    9.4651   -1.5000    0.0000 C   0  0  0  0  0  0  0  0  0  0  0  0
   15.5273   -2.0000    0.0000 C   0  0  0  0  0  0  0  0  0  0  0  0
    8.5991   -2.0000    0.0000 C   0  0  0  0  0  0  0  0  0  0  0  0
    6.8671   -2.0000    0.0000 C   0  0  0  0  0  0  0  0  0  0  0  0
    6.0010   -1.5000    0.0000 C   0  0  3  0  0  0  0  0  0  0  0  0
   16.3933   -1.5000    0.0000 C   0  0  0  0  0  0  0  0  0  0  0  0
   16.3933   -0.5000    0.0000 C   0  0  0  0  0  0  0  0  0  0  0  0
    5.1350   -2.0000    0.0000 C   0  0  0  0  0  0  0  0  0  0  0  0
   17.2594   -0.0000    0.0000 C   0  0  0  0  0  0  0  0  0  0  0  0
   16.3933    1.5000    0.0000 C   0  0  0  0  0  0  0  0  0  0  0  0
   17.2594    1.0000    0.0000 C   0  0  0  0  0  0  0  0  0  0  0  0
   16.3933    2.5000    0.0000 C   0  0  0  0  0  0  0  0  0  0  0  0
   15.5273    3.0000    0.0000 C   0  0  0  0  0  0  0  0  0  0  0  0
   11.6647   -2.4750    0.0000 H   0  0  0  0  0  0  0  0  0  0  0  0
   12.4617   -2.4750    0.0000 H   0  0  0  0  0  0  0  0  0  0  0  0
   11.5957   -1.0250    0.0000 H   0  0  0  0  0  0  0  0  0  0  0  0
   10.7987   -1.0250    0.0000 H   0  0  0  0  0  0  0  0  0  0  0  0
   13.3278   -1.0250    0.0000 H   0  0  0  0  0  0  0  0  0  0  0  0
   12.5307   -1.0250    0.0000 H   0  0  0  0  0  0  0  0  0  0  0  0
    9.9326   -2.4750    0.0000 H   0  0  0  0  0  0  0  0  0  0  0  0
   10.7297   -2.4750    0.0000 H   0  0  0  0  0  0  0  0  0  0  0  0
   13.3967   -2.4750    0.0000 H   0  0  0  0  0  0  0  0  0  0  0  0
   14.1938   -2.4750    0.0000 H   0  0  0  0  0  0  0  0  0  0  0  0
   15.0598   -1.0250    0.0000 H   0  0  0  0  0  0  0  0  0  0  0  0
   14.2628   -1.0250    0.0000 H   0  0  0  0  0  0  0  0  0  0  0  0
    9.8637   -1.0250    0.0000 H   0  0  0  0  0  0  0  0  0  0  0  0
    9.0666   -1.0250    0.0000 H   0  0  0  0  0  0  0  0  0  0  0  0
   15.5273   -2.6200    0.0000 H   0  0  0  0  0  0  0  0  0  0  0  0
    6.4685   -2.4750    0.0000 H   0  0  0  0  0  0  0  0  0  0  0  0
    7.2656   -2.4750    0.0000 H   0  0  0  0  0  0  0  0  0  0  0  0
    6.5380   -1.1900    0.0000 H   0  0  0  0  0  0  0  0  0  0  0  0
   16.9303   -1.8100    0.0000 H   0  0  0  0  0  0  0  0  0  0  0  0
   16.1813    0.0826    0.0000 H   0  0  0  0  0  0  0  0  0  0  0  0
   15.7828   -0.6077    0.0000 H   0  0  0  0  0  0  0  0  0  0  0  0
    4.7365   -2.4750    0.0000 H   0  0  0  0  0  0  0  0  0  0  0  0
    5.5335   -2.4750    0.0000 H   0  0  0  0  0  0  0  0  0  0  0  0
   17.7963   -0.3100    0.0000 H   0  0  0  0  0  0  0  0  0  0  0  0
   15.7828    1.6077    0.0000 H   0  0  0  0  0  0  0  0  0  0  0  0
   16.1813    0.9174    0.0000 H   0  0  0  0  0  0  0  0  0  0  0  0
   17.7963    1.3100    0.0000 H   0  0  0  0  0  0  0  0  0  0  0  0
   17.0039    2.3923    0.0000 H   0  0  0  0  0  0  0  0  0  0  0  0
   16.6054    3.0826    0.0000 H   0  0  0  0  0  0  0  0  0  0  0  0
    6.5380   -0.1900    0.0000 H   0  0  0  0  0  0  0  0  0  0  0  0
   15.8373    3.5369    0.0000 H   0  0  0  0  0  0  0  0  0  0  0  0
   14.9904    3.3100    0.0000 H   0  0  0  0  0  0  0  0  0  0  0  0
   15.2173    2.4631    0.0000 H   0  0  0  0  0  0  0  0  0  0  0  0
    2.0000   -2.1900    0.0000 H   0  0  0  0  0  0  0  0  0  0  0  0
    3.2130   -0.5970    0.0000 H   0  0  0  0  0  0  0  0  0  0  0  0
  1  5  1  0  0  0  0
  1  6  1  0  0  0  0
  1  7  1  0  0  0  0
  1  8  2  0  0  0  0
  2 17  1  0  0  0  0
  2 18  1  0  0  0  0
  3 17  2  0  0  0  0
  4 19  1  0  0  0  0
  4 57  1  0  0  0  0
  5 22  1  0  0  0  0
  6 61  1  0  0  0  0
  7 62  1  0  0  0  0
  9 10  1  0  0  0  0
  9 11  1  0  0  0  0
  9 28  1  0  0  0  0
  9 29  1  0  0  0  0
 10 13  1  0  0  0  0
 10 30  1  0  0  0  0
 10 31  1  0  0  0  0
 11 12  1  0  0  0  0
 11 32  1  0  0  0  0
 11 33  1  0  0  0  0
 12 14  1  0  0  0  0
 12 36  1  0  0  0  0
 12 37  1  0  0  0  0
 13 15  1  0  0  0  0
 13 34  1  0  0  0  0
 13 35  1  0  0  0  0
 14 16  1  0  0  0  0
 14 38  1  0  0  0  0
 14 39  1  0  0  0  0
 15 17  1  0  0  0  0
 15 40  1  0  0  0  0
 15 41  1  0  0  0  0
 16 20  2  0  0  0  0
 16 42  1  0  0  0  0
 18 19  1  0  0  0  0
 18 43  1  0  0  0  0
 18 44  1  0  0  0  0
 19 22  1  0  0  0  0
 19 45  1  0  0  0  0
 20 21  1  0  0  0  0
 20 46  1  0  0  0  0
 21 23  1  0  0  0  0
 21 47  1  0  0  0  0
 21 48  1  0  0  0  0
 22 49  1  0  0  0  0
 22 50  1  0  0  0  0
 23 25  2  0  0  0  0
 23 51  1  0  0  0  0
 24 25  1  0  0  0  0
 24 26  1  0  0  0  0
 24 52  1  0  0  0  0
 24 53  1  0  0  0  0
 25 54  1  0  0  0  0
 26 27  1  0  0  0  0
 26 55  1  0  0  0  0
 26 56  1  0  0  0  0
 27 58  1  0  0  0  0
 27 59  1  0  0  0  0
 27 60  1  0  0  0  0
M  END
> <PUBCHEM_COMPOUND_CID>
138185706

> <PUBCHEM_COMPOUND_CANONICALIZED>
1

> <PUBCHEM_CACTVS_COMPLEXITY>
471

> <PUBCHEM_CACTVS_HBOND_ACCEPTOR>
7

> <PUBCHEM_CACTVS_HBOND_DONOR>
3

> <PUBCHEM_CACTVS_ROTATABLE_BOND>
18

> <PUBCHEM_CACTVS_SUBSKEYS>
AAADcfB4OAIAAAAAAAAAAAAAAAAAAAAAAAAAAAAAAAAAAAAAAAAAGgAACCAACBSggAICCAAABxCIQCDSCIAAAAAgAAAICAEAAAgBEBIAAQACAAAFgAALAAOIyKCAAAAAAAAAAAAAAAAAAAAAAAAAAAAAAA==

> <PUBCHEM_IUPAC_OPENEYE_NAME>
(2-hydroxy-3-phosphonooxy-propyl) (9Z,12Z)-hexadeca-9,12-dienoate

> <PUBCHEM_IUPAC_CAS_NAME>
(9Z,12Z)-hexadeca-9,12-dienoic acid (2-hydroxy-3-phosphonooxypropyl) ester

> <PUBCHEM_IUPAC_NAME_MARKUP>
(2-hydroxy-3-phosphonooxypropyl) (9<I>Z</I>,12<I>Z</I>)-hexadeca-9,12-dienoate

> <PUBCHEM_IUPAC_NAME>
(2-hydroxy-3-phosphonooxypropyl) (9Z,12Z)-hexadeca-9,12-dienoate

> <PUBCHEM_IUPAC_SYSTEMATIC_NAME>
(2-oxidanyl-3-phosphonooxy-propyl) (9Z,12Z)-hexadeca-9,12-dienoate

> <PUBCHEM_IUPAC_TRADITIONAL_NAME>
(9Z,12Z)-hexadeca-9,12-dienoic acid (2-hydroxy-3-phosphonooxy-propyl) ester

> <PUBCHEM_IUPAC_INCHI>
InChI=1S/C19H35O7P/c1-2-3-4-5-6-7-8-9-10-11-12-13-14-15-19(21)25-16-18(20)17-26-27(22,23)24/h4-5,7-8,18,20H,2-3,6,9-17H2,1H3,(H2,22,23,24)/b5-4-,8-7-

> <PUBCHEM_IUPAC_INCHIKEY>
JJCLMTFDNYVOSZ-UTOQUPLUSA-N

> <PUBCHEM_XLOGP3_AA>
3.4

> <PUBCHEM_EXACT_MASS>
406.21204045

> <PUBCHEM_MOLECULAR_FORMULA>
C19H35O7P

> <PUBCHEM_MOLECULAR_WEIGHT>
406.5

> <PUBCHEM_OPENEYE_CAN_SMILES>
CCCC=CCC=CCCCCCCCC(=O)OCC(COP(=O)(O)O)O

> <PUBCHEM_OPENEYE_ISO_SMILES>
CCC/C=C\C/C=C\CCCCCCCC(=O)OCC(COP(=O)(O)O)O

> <PUBCHEM_CACTVS_TPSA>
113

> <PUBCHEM_MONOISOTOPIC_WEIGHT>
406.21204045

> <PUBCHEM_TOTAL_CHARGE>
0

> <PUBCHEM_HEAVY_ATOM_COUNT>
27

> <PUBCHEM_ATOM_DEF_STEREO_COUNT>
0

> <PUBCHEM_ATOM_UDEF_STEREO_COUNT>
1

> <PUBCHEM_BOND_DEF_STEREO_COUNT>
2

> <PUBCHEM_BOND_UDEF_STEREO_COUNT>
0

> <PUBCHEM_ISOTOPIC_ATOM_COUNT>
0

> <PUBCHEM_COMPONENT_COUNT>
1

> <PUBCHEM_CACTVS_TAUTO_COUNT>
-1

> <PUBCHEM_COORDINATE_TYPE>
1
5
255

> <PUBCHEM_BONDANNOTATIONS>
19  4  3

$$$$
