 
  -OEChem-10192104192D

 56 59  0     1  0  0  0  0  0999 V2000
    9.5772   -0.8216    0.0000 O   0  0  0  0  0  0  0  0  0  0  0  0
   12.1463   -1.1307    0.0000 O   0  0  0  0  0  0  0  0  0  0  0  0
    7.0740   -1.7695    0.0000 O   0  0  0  0  0  0  0  0  0  0  0  0
   10.2495   -2.8907    0.0000 O   0  0  0  0  0  0  0  0  0  0  0  0
    8.1618    0.5783    0.0000 O   0  0  0  0  0  0  0  0  0  0  0  0
    5.9862    0.5783    0.0000 O   0  0  0  0  0  0  0  0  0  0  0  0
   13.4196   -2.7862    0.0000 O   0  0  0  0  0  0  0  0  0  0  0  0
   13.0693    0.4571    0.0000 O   0  0  0  0  0  0  0  0  0  0  0  0
    4.7787    0.1565    0.0000 O   0  0  0  0  0  0  0  0  0  0  0  0
   11.3373    3.4571    0.0000 O   0  0  0  0  0  0  0  0  0  0  0  0
   11.3373    0.4571    0.0000 N   0  0  0  0  0  0  0  0  0  0  0  0
    5.3139   -1.4908    0.0000 N   0  0  0  0  0  0  0  0  0  0  0  0
   12.2033    1.9571    0.0000 N   0  0  0  0  0  0  0  0  0  0  0  0
    3.6197   -1.1307    0.0000 N   0  0  0  0  0  0  0  0  0  0  0  0
    2.4608   -2.4178    0.0000 N   0  0  0  0  0  0  0  0  0  0  0  0
   10.5283   -1.1307    0.0000 C   0  0  2  0  0  0  0  0  0  0  0  0
   10.8373   -2.0817    0.0000 C   0  0  1  0  0  0  0  0  0  0  0  0
    7.8830   -1.1818    0.0000 C   0  0  1  0  0  0  0  0  0  0  0  0
   11.3373   -0.5429    0.0000 C   0  0  1  0  0  0  0  0  0  0  0  0
    7.5740   -0.2307    0.0000 C   0  0  2  0  0  0  0  0  0  0  0  0
   11.8373   -2.0817    0.0000 C   0  0  1  0  0  0  0  0  0  0  0  0
    6.5740   -0.2307    0.0000 C   0  0  2  0  0  0  0  0  0  0  0  0
    6.2650   -1.1818    0.0000 C   0  0  1  0  0  0  0  0  0  0  0  0
    8.8341   -1.4908    0.0000 C   0  0  0  0  0  0  0  0  0  0  0  0
   12.4251   -2.8907    0.0000 C   0  0  0  0  0  0  0  0  0  0  0  0
   12.2033    0.9571    0.0000 C   0  0  0  0  0  0  0  0  0  0  0  0
   10.4713    0.9571    0.0000 C   0  0  0  0  0  0  0  0  0  0  0  0
    5.1060   -2.4689    0.0000 C   0  0  0  0  0  0  0  0  0  0  0  0
    4.5708   -0.8216    0.0000 C   0  0  0  0  0  0  0  0  0  0  0  0
   10.4713    1.9571    0.0000 C   0  0  0  0  0  0  0  0  0  0  0  0
    4.1550   -2.7779    0.0000 C   0  0  0  0  0  0  0  0  0  0  0  0
   11.3373    2.4571    0.0000 C   0  0  0  0  0  0  0  0  0  0  0  0
    3.4118   -2.1088    0.0000 C   0  0  0  0  0  0  0  0  0  0  0  0
   10.0899   -1.5691    0.0000 H   0  0  0  0  0  0  0  0  0  0  0  0
   11.1188   -2.6341    0.0000 H   0  0  0  0  0  0  0  0  0  0  0  0
    7.9800   -1.7941    0.0000 H   0  0  0  0  0  0  0  0  0  0  0  0
   11.8897   -0.2614    0.0000 H   0  0  0  0  0  0  0  0  0  0  0  0
    7.2925    0.3217    0.0000 H   0  0  0  0  0  0  0  0  0  0  0  0
   12.4497   -1.9847    0.0000 H   0  0  0  0  0  0  0  0  0  0  0  0
    5.9616   -0.3277    0.0000 H   0  0  0  0  0  0  0  0  0  0  0  0
    6.1680   -1.7941    0.0000 H   0  0  0  0  0  0  0  0  0  0  0  0
    8.5430   -2.0382    0.0000 H   0  0  0  0  0  0  0  0  0  0  0  0
    9.3226   -1.8725    0.0000 H   0  0  0  0  0  0  0  0  0  0  0  0
   11.8678   -3.1625    0.0000 H   0  0  0  0  0  0  0  0  0  0  0  0
   12.5960   -3.4867    0.0000 H   0  0  0  0  0  0  0  0  0  0  0  0
   10.5017   -3.4571    0.0000 H   0  0  0  0  0  0  0  0  0  0  0  0
    7.9096    1.1447    0.0000 H   0  0  0  0  0  0  0  0  0  0  0  0
    6.2384    1.1447    0.0000 H   0  0  0  0  0  0  0  0  0  0  0  0
    9.9343    0.6471    0.0000 H   0  0  0  0  0  0  0  0  0  0  0  0
    5.5668   -2.8838    0.0000 H   0  0  0  0  0  0  0  0  0  0  0  0
   13.7840   -3.2878    0.0000 H   0  0  0  0  0  0  0  0  0  0  0  0
   12.7402    2.2671    0.0000 H   0  0  0  0  0  0  0  0  0  0  0  0
    9.9343    2.2671    0.0000 H   0  0  0  0  0  0  0  0  0  0  0  0
    4.0260   -3.3844    0.0000 H   0  0  0  0  0  0  0  0  0  0  0  0
    2.3318   -3.0243    0.0000 H   0  0  0  0  0  0  0  0  0  0  0  0
    2.0000   -2.0030    0.0000 H   0  0  0  0  0  0  0  0  0  0  0  0
 16  1  1  1  0  0  0
  1 24  1  0  0  0  0
  2 19  1  0  0  0  0
  2 21  1  0  0  0  0
  3 18  1  0  0  0  0
  3 23  1  0  0  0  0
 17  4  1  1  0  0  0
  4 46  1  0  0  0  0
 20  5  1  6  0  0  0
  5 47  1  0  0  0  0
 22  6  1  6  0  0  0
  6 48  1  0  0  0  0
  7 25  1  0  0  0  0
  7 51  1  0  0  0  0
  8 26  2  0  0  0  0
  9 29  2  0  0  0  0
 10 32  2  0  0  0  0
 19 11  1  6  0  0  0
 11 26  1  0  0  0  0
 11 27  1  0  0  0  0
 23 12  1  1  0  0  0
 12 28  1  0  0  0  0
 12 29  1  0  0  0  0
 13 26  1  0  0  0  0
 13 32  1  0  0  0  0
 13 52  1  0  0  0  0
 14 29  1  0  0  0  0
 14 33  2  0  0  0  0
 15 33  1  0  0  0  0
 15 55  1  0  0  0  0
 15 56  1  0  0  0  0
 16 17  1  0  0  0  0
 16 19  1  0  0  0  0
 16 34  1  0  0  0  0
 17 21  1  0  0  0  0
 17 35  1  0  0  0  0
 18 20  1  0  0  0  0
 18 24  1  1  0  0  0
 18 36  1  0  0  0  0
 19 37  1  0  0  0  0
 20 22  1  0  0  0  0
 20 38  1  0  0  0  0
 21 25  1  6  0  0  0
 21 39  1  0  0  0  0
 22 23  1  0  0  0  0
 22 40  1  0  0  0  0
 23 41  1  0  0  0  0
 24 42  1  0  0  0  0
 24 43  1  0  0  0  0
 25 44  1  0  0  0  0
 25 45  1  0  0  0  0
 27 30  2  0  0  0  0
 27 49  1  0  0  0  0
 28 31  2  0  0  0  0
 28 50  1  0  0  0  0
 30 32  1  0  0  0  0
 30 53  1  0  0  0  0
 31 33  1  0  0  0  0
 31 54  1  0  0  0  0
M  END
> <PUBCHEM_COMPOUND_CID>
100912530

> <PUBCHEM_COMPOUND_CANONICALIZED>
1

> <PUBCHEM_CACTVS_COMPLEXITY>
909

> <PUBCHEM_CACTVS_HBOND_ACCEPTOR>
10

> <PUBCHEM_CACTVS_HBOND_DONOR>
6

> <PUBCHEM_CACTVS_ROTATABLE_BOND>
6

> <PUBCHEM_CACTVS_SUBSKEYS>
AAADceB7vAAAAAAAAAAAAAAAAAAAASJAAAAgQAAAAAAAAAAAAAAAHgAQCAAACBThgAYBAAPABgCoACN2dACAAAEAAgAIAAAYAFCDEAIAgAAPQAAPFyITAMDwMAoAAAAAAAAAAAAAAAAAAAAAAAAAAAAAAA==

> <PUBCHEM_IUPAC_OPENEYE_NAME>
1-[(2R,3R,4R,5R)-3-[[(2R,3S,4R,5R)-5-(4-amino-2-oxo-pyrimidin-1-yl)-3,4-dihydroxy-tetrahydrofuran-2-yl]methoxy]-4-hydroxy-5-(hydroxymethyl)tetrahydrofuran-2-yl]pyrimidine-2,4-dione

> <PUBCHEM_IUPAC_CAS_NAME>
1-[(2R,3R,4R,5R)-3-[[(2R,3S,4R,5R)-5-(4-amino-2-oxo-1-pyrimidinyl)-3,4-dihydroxy-2-oxolanyl]methoxy]-4-hydroxy-5-(hydroxymethyl)-2-oxolanyl]pyrimidine-2,4-dione

> <PUBCHEM_IUPAC_NAME_MARKUP>
1-[(2<I>R</I>,3<I>R</I>,4<I>R</I>,5<I>R</I>)-3-[[(2<I>R</I>,3<I>S</I>,4<I>R</I>,5<I>R</I>)-5-(4-amino-2-oxopyrimidin-1-yl)-3,4-dihydroxyoxolan-2-yl]methoxy]-4-hydroxy-5-(hydroxymethyl)oxolan-2-yl]pyrimidine-2,4-dione

> <PUBCHEM_IUPAC_NAME>
1-[(2R,3R,4R,5R)-3-[[(2R,3S,4R,5R)-5-(4-amino-2-oxopyrimidin-1-yl)-3,4-dihydroxyoxolan-2-yl]methoxy]-4-hydroxy-5-(hydroxymethyl)oxolan-2-yl]pyrimidine-2,4-dione

> <PUBCHEM_IUPAC_SYSTEMATIC_NAME>
1-[(2R,3R,4R,5R)-3-[[(2R,3S,4R,5R)-5-(4-azanyl-2-oxidanylidene-pyrimidin-1-yl)-3,4-bis(oxidanyl)oxolan-2-yl]methoxy]-5-(hydroxymethyl)-4-oxidanyl-oxolan-2-yl]pyrimidine-2,4-dione

> <PUBCHEM_IUPAC_TRADITIONAL_NAME>
1-[(2R,3R,4R,5R)-3-[[(2R,3S,4R,5R)-5-(4-amino-2-keto-pyrimidin-1-yl)-3,4-dihydroxy-tetrahydrofuran-2-yl]methoxy]-4-hydroxy-5-methylol-tetrahydrofuran-2-yl]pyrimidine-2,4-quinone

> <PUBCHEM_IUPAC_INCHI>
InChI=1S/C18H23N5O10/c19-9-1-3-22(17(29)20-9)15-13(28)11(26)8(33-15)6-31-14-12(27)7(5-24)32-16(14)23-4-2-10(25)21-18(23)30/h1-4,7-8,11-16,24,26-28H,5-6H2,(H2,19,20,29)(H,21,25,30)/t7-,8-,11-,12-,13-,14-,15-,16-/m1/s1

> <PUBCHEM_IUPAC_INCHIKEY>
SEESMTMIHPNSLP-NCOIDOBVSA-N

> <PUBCHEM_XLOGP3>
-4

> <PUBCHEM_EXACT_MASS>
469.14449195

> <PUBCHEM_MOLECULAR_FORMULA>
C18H23N5O10

> <PUBCHEM_MOLECULAR_WEIGHT>
469.4

> <PUBCHEM_OPENEYE_CAN_SMILES>
C1=CN(C(=O)N=C1N)C2C(C(C(O2)COC3C(C(OC3N4C=CC(=O)NC4=O)CO)O)O)O

> <PUBCHEM_OPENEYE_ISO_SMILES>
C1=CN(C(=O)N=C1N)[C@H]2[C@@H]([C@@H]([C@H](O2)CO[C@@H]3[C@@H]([C@H](O[C@H]3N4C=CC(=O)NC4=O)CO)O)O)O

> <PUBCHEM_CACTVS_TPSA>
217

> <PUBCHEM_MONOISOTOPIC_WEIGHT>
469.14449195

> <PUBCHEM_TOTAL_CHARGE>
0

> <PUBCHEM_HEAVY_ATOM_COUNT>
33

> <PUBCHEM_ATOM_DEF_STEREO_COUNT>
8

> <PUBCHEM_ATOM_UDEF_STEREO_COUNT>
0

> <PUBCHEM_BOND_DEF_STEREO_COUNT>
0

> <PUBCHEM_BOND_UDEF_STEREO_COUNT>
0

> <PUBCHEM_ISOTOPIC_ATOM_COUNT>
0

> <PUBCHEM_COMPONENT_COUNT>
1

> <PUBCHEM_CACTVS_TAUTO_COUNT>
-1

> <PUBCHEM_COORDINATE_TYPE>
1
5
255

> <PUBCHEM_BONDANNOTATIONS>
16  1  5
19  11  6
11  26  8
11  27  8
23  12  5
12  28  8
12  29  8
13  26  8
13  32  8
14  29  8
14  33  8
18  24  5
21  25  6
27  30  8
28  31  8
30  32  8
31  33  8
17  4  5
20  5  6
22  6  6

$$$$
