 
  -OEChem-10192104252D

 87 89  0     1  0  0  0  0  0999 V2000
    6.1962    0.0660    0.0000 O   0  0  0  0  0  0  0  0  0  0  0  0
    7.1962   -0.9340    0.0000 O   0  0  0  0  0  0  0  0  0  0  0  0
    5.4641   -0.9340    0.0000 O   0  0  0  0  0  0  0  0  0  0  0  0
    8.4562    1.3261    0.0000 O   0  0  0  0  0  0  0  0  0  0  0  0
    6.6962    2.6049    0.0000 O   0  0  0  0  0  0  0  0  0  0  0  0
    7.1962   -2.9340    0.0000 O   0  0  0  0  0  0  0  0  0  0  0  0
    5.4641   -3.9340    0.0000 O   0  0  0  0  0  0  0  0  0  0  0  0
    3.7320   -2.9340    0.0000 O   0  0  0  0  0  0  0  0  0  0  0  0
    8.3551   -1.2211    0.0000 O   0  0  0  0  0  0  0  0  0  0  0  0
    4.7282    2.3043    0.0000 O   0  0  0  0  0  0  0  0  0  0  0  0
    3.7320    0.0660    0.0000 O   0  0  0  0  0  0  0  0  0  0  0  0
    7.9210    2.9734    0.0000 O   0  0  0  0  0  0  0  0  0  0  0  0
    6.3301   -4.4340    0.0000 O   0  0  0  0  0  0  0  0  0  0  0  0
    3.7320   -3.9340    0.0000 O   0  0  0  0  0  0  0  0  0  0  0  0
    2.8660   -1.4340    0.0000 O   0  0  0  0  0  0  0  0  0  0  0  0
    9.5141   -2.5083    0.0000 O   0  0  0  0  0  0  0  0  0  0  0  0
    2.0000    0.0660    0.0000 O   0  0  0  0  0  0  0  0  0  0  0  0
   13.6273    4.8275    0.0000 O   0  0  0  0  0  0  0  0  0  0  0  0
    7.1962    0.0660    0.0000 C   0  0  1  0  0  0  0  0  0  0  0  0
    7.5052    1.0171    0.0000 C   0  0  2  0  0  0  0  0  0  0  0  0
    6.6962    1.6049    0.0000 C   0  0  1  0  0  0  0  0  0  0  0  0
    5.8871    1.0171    0.0000 C   0  0  1  0  0  0  0  0  0  0  0  0
    6.3301   -1.4340    0.0000 C   0  0  1  0  0  0  0  0  0  0  0  0
    6.3301   -2.4340    0.0000 C   0  0  1  0  0  0  0  0  0  0  0  0
    5.4641   -2.9340    0.0000 C   0  0  2  0  0  0  0  0  0  0  0  0
    4.5981   -2.4340    0.0000 C   0  0  1  0  0  0  0  0  0  0  0  0
    4.5981   -1.4340    0.0000 C   0  0  1  0  0  0  0  0  0  0  0  0
    8.1472   -0.2430    0.0000 C   0  0  0  0  0  0  0  0  0  0  0  0
    4.9361    1.3261    0.0000 C   0  0  0  0  0  0  0  0  0  0  0  0
    3.7320   -0.9340    0.0000 C   0  0  0  0  0  0  0  0  0  0  0  0
    8.6641    2.3043    0.0000 C   0  0  0  0  0  0  0  0  0  0  0  0
    7.1962   -3.9340    0.0000 C   0  0  0  0  0  0  0  0  0  0  0  0
    4.5981   -4.4340    0.0000 C   0  0  0  0  0  0  0  0  0  0  0  0
    2.8660   -2.4340    0.0000 C   0  0  0  0  0  0  0  0  0  0  0  0
    9.3062   -1.5301    0.0000 C   0  0  0  0  0  0  0  0  0  0  0  0
    9.6152    2.6133    0.0000 C   0  0  0  0  0  0  0  0  0  0  0  0
    8.0622   -4.4340    0.0000 C   0  0  0  0  0  0  0  0  0  0  0  0
    4.5981   -5.4340    0.0000 C   0  0  0  0  0  0  0  0  0  0  0  0
    2.8660    0.5660    0.0000 C   0  0  0  0  0  0  0  0  0  0  0  0
    2.0000   -2.9340    0.0000 C   0  0  0  0  0  0  0  0  0  0  0  0
   10.0493   -0.8610    0.0000 C   0  0  0  0  0  0  0  0  0  0  0  0
    9.8231    3.5914    0.0000 C   0  0  0  0  0  0  0  0  0  0  0  0
    2.8660    1.5660    0.0000 C   0  0  0  0  0  0  0  0  0  0  0  0
   10.7742    3.9004    0.0000 C   0  0  0  0  0  0  0  0  0  0  0  0
   11.5173    3.2313    0.0000 C   0  0  0  0  0  0  0  0  0  0  0  0
   10.9821    4.8786    0.0000 C   0  0  0  0  0  0  0  0  0  0  0  0
   12.4684    3.5403    0.0000 C   0  0  0  0  0  0  0  0  0  0  0  0
   11.9331    5.1876    0.0000 C   0  0  0  0  0  0  0  0  0  0  0  0
   12.6763    4.5185    0.0000 C   0  0  0  0  0  0  0  0  0  0  0  0
    7.6022    1.6295    0.0000 H   0  0  0  0  0  0  0  0  0  0  0  0
    7.2486    1.8864    0.0000 H   0  0  0  0  0  0  0  0  0  0  0  0
    5.4487    0.5787    0.0000 H   0  0  0  0  0  0  0  0  0  0  0  0
    6.8671   -1.7440    0.0000 H   0  0  0  0  0  0  0  0  0  0  0  0
    6.3301   -3.0540    0.0000 H   0  0  0  0  0  0  0  0  0  0  0  0
    4.9272   -3.2440    0.0000 H   0  0  0  0  0  0  0  0  0  0  0  0
    4.5981   -3.0540    0.0000 H   0  0  0  0  0  0  0  0  0  0  0  0
    4.5981   -0.8140    0.0000 H   0  0  0  0  0  0  0  0  0  0  0  0
    8.7668   -0.2213    0.0000 H   0  0  0  0  0  0  0  0  0  0  0  0
    8.2335    0.3710    0.0000 H   0  0  0  0  0  0  0  0  0  0  0  0
    4.3165    1.3045    0.0000 H   0  0  0  0  0  0  0  0  0  0  0  0
    4.8498    0.7122    0.0000 H   0  0  0  0  0  0  0  0  0  0  0  0
    3.1215   -0.8263    0.0000 H   0  0  0  0  0  0  0  0  0  0  0  0
    3.5200   -1.5166    0.0000 H   0  0  0  0  0  0  0  0  0  0  0  0
    7.2331    2.9149    0.0000 H   0  0  0  0  0  0  0  0  0  0  0  0
    4.1385    2.4959    0.0000 H   0  0  0  0  0  0  0  0  0  0  0  0
   10.0759    2.1984    0.0000 H   0  0  0  0  0  0  0  0  0  0  0  0
    7.7522   -4.9709    0.0000 H   0  0  0  0  0  0  0  0  0  0  0  0
    8.5991   -4.7440    0.0000 H   0  0  0  0  0  0  0  0  0  0  0  0
    8.3722   -3.8970    0.0000 H   0  0  0  0  0  0  0  0  0  0  0  0
    3.9781   -5.4340    0.0000 H   0  0  0  0  0  0  0  0  0  0  0  0
    4.5981   -6.0540    0.0000 H   0  0  0  0  0  0  0  0  0  0  0  0
    5.2181   -5.4340    0.0000 H   0  0  0  0  0  0  0  0  0  0  0  0
    1.6900   -2.3970    0.0000 H   0  0  0  0  0  0  0  0  0  0  0  0
    1.4631   -3.2440    0.0000 H   0  0  0  0  0  0  0  0  0  0  0  0
    2.3100   -3.4709    0.0000 H   0  0  0  0  0  0  0  0  0  0  0  0
   10.4642   -1.3218    0.0000 H   0  0  0  0  0  0  0  0  0  0  0  0
   10.5101   -0.4461    0.0000 H   0  0  0  0  0  0  0  0  0  0  0  0
    9.6345   -0.4003    0.0000 H   0  0  0  0  0  0  0  0  0  0  0  0
    9.3624    4.0063    0.0000 H   0  0  0  0  0  0  0  0  0  0  0  0
    3.4860    1.5660    0.0000 H   0  0  0  0  0  0  0  0  0  0  0  0
    2.8660    2.1860    0.0000 H   0  0  0  0  0  0  0  0  0  0  0  0
    2.2460    1.5660    0.0000 H   0  0  0  0  0  0  0  0  0  0  0  0
   11.3884    2.6249    0.0000 H   0  0  0  0  0  0  0  0  0  0  0  0
   10.5213    5.2935    0.0000 H   0  0  0  0  0  0  0  0  0  0  0  0
   12.9291    3.1255    0.0000 H   0  0  0  0  0  0  0  0  0  0  0  0
   12.0620    5.7941    0.0000 H   0  0  0  0  0  0  0  0  0  0  0  0
   13.7562    5.4340    0.0000 H   0  0  0  0  0  0  0  0  0  0  0  0
  1 19  1  0  0  0  0
  1 22  1  0  0  0  0
 19  2  1  6  0  0  0
 23  2  1  6  0  0  0
  3 23  1  0  0  0  0
  3 27  1  0  0  0  0
 20  4  1  6  0  0  0
  4 31  1  0  0  0  0
 21  5  1  1  0  0  0
  5 64  1  0  0  0  0
 24  6  1  6  0  0  0
  6 32  1  0  0  0  0
 25  7  1  1  0  0  0
  7 33  1  0  0  0  0
 26  8  1  6  0  0  0
  8 34  1  0  0  0  0
  9 28  1  0  0  0  0
  9 35  1  0  0  0  0
 10 29  1  0  0  0  0
 10 65  1  0  0  0  0
 11 30  1  0  0  0  0
 11 39  1  0  0  0  0
 12 31  2  0  0  0  0
 13 32  2  0  0  0  0
 14 33  2  0  0  0  0
 15 34  2  0  0  0  0
 16 35  2  0  0  0  0
 17 39  2  0  0  0  0
 18 49  1  0  0  0  0
 18 87  1  0  0  0  0
 19 20  1  0  0  0  0
 19 28  1  0  0  0  0
 20 21  1  0  0  0  0
 20 50  1  0  0  0  0
 21 22  1  0  0  0  0
 21 51  1  0  0  0  0
 22 29  1  6  0  0  0
 22 52  1  0  0  0  0
 23 24  1  0  0  0  0
 23 53  1  0  0  0  0
 24 25  1  0  0  0  0
 24 54  1  0  0  0  0
 25 26  1  0  0  0  0
 25 55  1  0  0  0  0
 26 27  1  0  0  0  0
 26 56  1  0  0  0  0
 27 30  1  1  0  0  0
 27 57  1  0  0  0  0
 28 58  1  0  0  0  0
 28 59  1  0  0  0  0
 29 60  1  0  0  0  0
 29 61  1  0  0  0  0
 30 62  1  0  0  0  0
 30 63  1  0  0  0  0
 31 36  1  0  0  0  0
 32 37  1  0  0  0  0
 33 38  1  0  0  0  0
 34 40  1  0  0  0  0
 35 41  1  0  0  0  0
 36 42  2  0  0  0  0
 36 66  1  0  0  0  0
 37 67  1  0  0  0  0
 37 68  1  0  0  0  0
 37 69  1  0  0  0  0
 38 70  1  0  0  0  0
 38 71  1  0  0  0  0
 38 72  1  0  0  0  0
 39 43  1  0  0  0  0
 40 73  1  0  0  0  0
 40 74  1  0  0  0  0
 40 75  1  0  0  0  0
 41 76  1  0  0  0  0
 41 77  1  0  0  0  0
 41 78  1  0  0  0  0
 42 44  1  0  0  0  0
 42 79  1  0  0  0  0
 43 80  1  0  0  0  0
 43 81  1  0  0  0  0
 43 82  1  0  0  0  0
 44 45  2  0  0  0  0
 44 46  1  0  0  0  0
 45 47  1  0  0  0  0
 45 83  1  0  0  0  0
 46 48  2  0  0  0  0
 46 84  1  0  0  0  0
 47 49  2  0  0  0  0
 47 85  1  0  0  0  0
 48 49  1  0  0  0  0
 48 86  1  0  0  0  0
M  END
> <PUBCHEM_COMPOUND_CID>
71734604

> <PUBCHEM_COMPOUND_CANONICALIZED>
1

> <PUBCHEM_CACTVS_COMPLEXITY>
1230

> <PUBCHEM_CACTVS_HBOND_ACCEPTOR>
18

> <PUBCHEM_CACTVS_HBOND_DONOR>
3

> <PUBCHEM_CACTVS_ROTATABLE_BOND>
19

> <PUBCHEM_CACTVS_SUBSKEYS>
AAADcfB4PgAAAAAAAAAAAAAAAAAAASAAAAA0QAAAAAAAAAABAAAAGgAACAAADBSwmAMyDoAABgCIAiDSCAACAAAgIAAIiAAGCMgZNiKCMRKicAAlwBEPuYfA4AwOIAAAAAAAAABAAAAAAAAAAAAAAAAAAA==

> <PUBCHEM_IUPAC_OPENEYE_NAME>
[(2S,3S,4R,5R)-2-(acetoxymethyl)-4-hydroxy-5-(hydroxymethyl)-2-[(2R,3R,4S,5R,6R)-3,4,5-triacetoxy-6-(acetoxymethyl)tetrahydropyran-2-yl]oxy-tetrahydrofuran-3-yl] (E)-3-(4-hydroxyphenyl)prop-2-enoate

> <PUBCHEM_IUPAC_CAS_NAME>
(E)-3-(4-hydroxyphenyl)-2-propenoic acid [(2S,3S,4R,5R)-2-(acetyloxymethyl)-4-hydroxy-5-(hydroxymethyl)-2-[[(2R,3R,4S,5R,6R)-3,4,5-triacetyloxy-6-(acetyloxymethyl)-2-oxanyl]oxy]-3-oxolanyl] ester

> <PUBCHEM_IUPAC_NAME_MARKUP>
[(2<I>S</I>,3<I>S</I>,4<I>R</I>,5<I>R</I>)-2-(acetyloxymethyl)-4-hydroxy-5-(hydroxymethyl)-2-[(2<I>R</I>,3<I>R</I>,4<I>S</I>,5<I>R</I>,6<I>R</I>)-3,4,5-triacetyloxy-6-(acetyloxymethyl)oxan-2-yl]oxyoxolan-3-yl] (<I>E</I>)-3-(4-hydroxyphenyl)prop-2-enoate

> <PUBCHEM_IUPAC_NAME>
[(2S,3S,4R,5R)-2-(acetyloxymethyl)-4-hydroxy-5-(hydroxymethyl)-2-[(2R,3R,4S,5R,6R)-3,4,5-triacetyloxy-6-(acetyloxymethyl)oxan-2-yl]oxyoxolan-3-yl] (E)-3-(4-hydroxyphenyl)prop-2-enoate

> <PUBCHEM_IUPAC_SYSTEMATIC_NAME>
[(2S,3S,4R,5R)-2-(acetyloxymethyl)-5-(hydroxymethyl)-4-oxidanyl-2-[(2R,3R,4S,5R,6R)-3,4,5-triacetyloxy-6-(acetyloxymethyl)oxan-2-yl]oxy-oxolan-3-yl] (E)-3-(4-hydroxyphenyl)prop-2-enoate

> <PUBCHEM_IUPAC_TRADITIONAL_NAME>
(E)-3-(4-hydroxyphenyl)acrylic acid [(2S,3S,4R,5R)-2-(acetoxymethyl)-4-hydroxy-5-methylol-2-[(2R,3R,4S,5R,6R)-3,4,5-triacetoxy-6-(acetoxymethyl)tetrahydropyran-2-yl]oxy-tetrahydrofuran-3-yl] ester

> <PUBCHEM_IUPAC_INCHI>
InChI=1S/C31H38O18/c1-15(33)41-13-23-26(43-17(3)35)27(44-18(4)36)28(45-19(5)37)30(46-23)49-31(14-42-16(2)34)29(25(40)22(12-32)48-31)47-24(39)11-8-20-6-9-21(38)10-7-20/h6-11,22-23,25-30,32,38,40H,12-14H2,1-5H3/b11-8+/t22-,23-,25-,26-,27+,28-,29+,30-,31+/m1/s1

> <PUBCHEM_IUPAC_INCHIKEY>
TURMJJCWDOVIBV-OZNBHJLGSA-N

> <PUBCHEM_XLOGP3_AA>
0.2

> <PUBCHEM_EXACT_MASS>
698.20581436

> <PUBCHEM_MOLECULAR_FORMULA>
C31H38O18

> <PUBCHEM_MOLECULAR_WEIGHT>
698.6

> <PUBCHEM_OPENEYE_CAN_SMILES>
CC(=O)OCC1C(C(C(C(O1)OC2(C(C(C(O2)CO)O)OC(=O)C=CC3=CC=C(C=C3)O)COC(=O)C)OC(=O)C)OC(=O)C)OC(=O)C

> <PUBCHEM_OPENEYE_ISO_SMILES>
CC(=O)OC[C@@H]1[C@H]([C@@H]([C@H]([C@H](O1)O[C@]2([C@H]([C@@H]([C@H](O2)CO)O)OC(=O)/C=C/C3=CC=C(C=C3)O)COC(=O)C)OC(=O)C)OC(=O)C)OC(=O)C

> <PUBCHEM_CACTVS_TPSA>
246

> <PUBCHEM_MONOISOTOPIC_WEIGHT>
698.20581436

> <PUBCHEM_TOTAL_CHARGE>
0

> <PUBCHEM_HEAVY_ATOM_COUNT>
49

> <PUBCHEM_ATOM_DEF_STEREO_COUNT>
9

> <PUBCHEM_ATOM_UDEF_STEREO_COUNT>
0

> <PUBCHEM_BOND_DEF_STEREO_COUNT>
1

> <PUBCHEM_BOND_UDEF_STEREO_COUNT>
0

> <PUBCHEM_ISOTOPIC_ATOM_COUNT>
0

> <PUBCHEM_COMPONENT_COUNT>
1

> <PUBCHEM_CACTVS_TAUTO_COUNT>
-1

> <PUBCHEM_COORDINATE_TYPE>
1
5
255

> <PUBCHEM_BONDANNOTATIONS>
19  2  6
23  2  6
22  29  6
27  30  5
20  4  6
44  45  8
44  46  8
45  47  8
46  48  8
47  49  8
48  49  8
21  5  5
24  6  6
25  7  5
26  8  6

$$$$
