 
  -OEChem-10192103342D

 69 72  0     1  0  0  0  0  0999 V2000
    8.3719   -0.6613    0.0000 O   0  0  0  0  0  0  0  0  0  0  0  0
    6.0010    0.5950    0.0000 O   0  0  0  0  0  0  0  0  0  0  0  0
    6.8671   -0.9050    0.0000 O   0  0  0  0  0  0  0  0  0  0  0  0
    8.9900    2.8502    0.0000 O   0  0  0  0  0  0  0  0  0  0  0  0
   10.4022    0.1122    0.0000 O   0  0  0  0  0  0  0  0  0  0  0  0
    5.1350   -0.9050    0.0000 O   0  0  0  0  0  0  0  0  0  0  0  0
    6.0010    3.5950    0.0000 O   0  0  0  0  0  0  0  0  0  0  0  0
    6.8671   -2.9050    0.0000 O   0  0  0  0  0  0  0  0  0  0  0  0
    7.7331    3.5950    0.0000 O   0  0  0  0  0  0  0  0  0  0  0  0
    5.1350   -3.9050    0.0000 O   0  0  0  0  0  0  0  0  0  0  0  0
    3.4030   -2.9050    0.0000 O   0  0  0  0  0  0  0  0  0  0  0  0
    2.5369   -1.4050    0.0000 O   0  0  0  0  0  0  0  0  0  0  0  0
   11.1094   -1.4689    0.0000 O   0  0  0  0  0  0  0  0  0  0  0  0
   16.5864    0.9810    0.0000 O   0  0  0  0  0  0  0  0  0  0  0  0
    7.7331    0.5950    0.0000 C   0  0  2  0  0  0  0  0  0  0  0  0
    8.6793    0.2903    0.0000 C   0  0  1  0  0  0  0  0  0  0  0  0
    7.7331    1.5950    0.0000 C   0  0  2  0  0  0  0  0  0  0  0  0
    8.6793    1.8997    0.0000 C   0  0  2  0  0  0  0  0  0  0  0  0
    9.2629    1.0950    0.0000 C   0  0  0  0  0  0  0  0  0  0  0  0
    6.8671    0.0950    0.0000 C   0  0  1  0  0  0  0  0  0  0  0  0
    9.4893   -0.2961    0.0000 C   0  0  0  0  0  0  0  0  0  0  0  0
    6.8671    2.0950    0.0000 C   0  0  0  0  0  0  0  0  0  0  0  0
    6.0010    1.5950    0.0000 C   0  0  0  0  0  0  0  0  0  0  0  0
    6.0010   -1.4050    0.0000 C   0  0  2  0  0  0  0  0  0  0  0  0
    6.8671    3.0950    0.0000 C   0  0  0  0  0  0  0  0  0  0  0  0
    6.0010   -2.4050    0.0000 C   0  0  1  0  0  0  0  0  0  0  0  0
    5.1350   -2.9050    0.0000 C   0  0  2  0  0  0  0  0  0  0  0  0
    4.2690   -2.4050    0.0000 C   0  0  1  0  0  0  0  0  0  0  0  0
    4.2690   -1.4050    0.0000 C   0  0  1  0  0  0  0  0  0  0  0  0
   11.2122   -0.4742    0.0000 C   0  0  0  0  0  0  0  0  0  0  0  0
    3.4030   -0.9050    0.0000 C   0  0  0  0  0  0  0  0  0  0  0  0
   12.1251   -0.0659    0.0000 C   0  0  0  0  0  0  0  0  0  0  0  0
   12.9351   -0.6523    0.0000 C   0  0  0  0  0  0  0  0  0  0  0  0
   13.8479   -0.2439    0.0000 C   0  0  0  0  0  0  0  0  0  0  0  0
   13.9507    0.7508    0.0000 C   0  0  0  0  0  0  0  0  0  0  0  0
   14.6580   -0.8303    0.0000 C   0  0  0  0  0  0  0  0  0  0  0  0
   14.8636    1.1591    0.0000 C   0  0  0  0  0  0  0  0  0  0  0  0
   15.5708   -0.4220    0.0000 C   0  0  0  0  0  0  0  0  0  0  0  0
   15.6736    0.5727    0.0000 C   0  0  0  0  0  0  0  0  0  0  0  0
    7.8230   -0.2502    0.0000 H   0  0  0  0  0  0  0  0  0  0  0  0
    7.8230    2.4402    0.0000 H   0  0  0  0  0  0  0  0  0  0  0  0
    8.2418    2.3391    0.0000 H   0  0  0  0  0  0  0  0  0  0  0  0
    9.7238    0.6803    0.0000 H   0  0  0  0  0  0  0  0  0  0  0  0
    9.7238    1.5097    0.0000 H   0  0  0  0  0  0  0  0  0  0  0  0
    7.4040   -0.2150    0.0000 H   0  0  0  0  0  0  0  0  0  0  0  0
    9.0441   -0.7276    0.0000 H   0  0  0  0  0  0  0  0  0  0  0  0
    9.8369   -0.8095    0.0000 H   0  0  0  0  0  0  0  0  0  0  0  0
    8.7876   -1.1214    0.0000 H   0  0  0  0  0  0  0  0  0  0  0  0
    5.4641    1.9050    0.0000 H   0  0  0  0  0  0  0  0  0  0  0  0
    9.5966    2.9781    0.0000 H   0  0  0  0  0  0  0  0  0  0  0  0
    6.0010   -0.7850    0.0000 H   0  0  0  0  0  0  0  0  0  0  0  0
    6.0010   -3.0250    0.0000 H   0  0  0  0  0  0  0  0  0  0  0  0
    4.5981   -3.2150    0.0000 H   0  0  0  0  0  0  0  0  0  0  0  0
    4.2690   -3.0250    0.0000 H   0  0  0  0  0  0  0  0  0  0  0  0
    4.2690   -0.7850    0.0000 H   0  0  0  0  0  0  0  0  0  0  0  0
    3.8015   -0.4301    0.0000 H   0  0  0  0  0  0  0  0  0  0  0  0
    3.0044   -0.4301    0.0000 H   0  0  0  0  0  0  0  0  0  0  0  0
    6.0010    4.2150    0.0000 H   0  0  0  0  0  0  0  0  0  0  0  0
    6.8671   -3.5250    0.0000 H   0  0  0  0  0  0  0  0  0  0  0  0
    4.5981   -4.2150    0.0000 H   0  0  0  0  0  0  0  0  0  0  0  0
    3.4030   -3.5250    0.0000 H   0  0  0  0  0  0  0  0  0  0  0  0
   12.1888    0.5508    0.0000 H   0  0  0  0  0  0  0  0  0  0  0  0
    2.0000   -1.0950    0.0000 H   0  0  0  0  0  0  0  0  0  0  0  0
   12.8713   -1.2690    0.0000 H   0  0  0  0  0  0  0  0  0  0  0  0
   13.4485    1.1143    0.0000 H   0  0  0  0  0  0  0  0  0  0  0  0
   14.5942   -1.4470    0.0000 H   0  0  0  0  0  0  0  0  0  0  0  0
   14.9273    1.7758    0.0000 H   0  0  0  0  0  0  0  0  0  0  0  0
   16.0730   -0.7856    0.0000 H   0  0  0  0  0  0  0  0  0  0  0  0
   17.0887    0.6175    0.0000 H   0  0  0  0  0  0  0  0  0  0  0  0
 16  1  1  1  0  0  0
  1 48  1  0  0  0  0
  2 20  1  0  0  0  0
  2 23  1  0  0  0  0
 20  3  1  6  0  0  0
 24  3  1  1  0  0  0
 18  4  1  1  0  0  0
  4 50  1  0  0  0  0
  5 21  1  0  0  0  0
  5 30  1  0  0  0  0
  6 24  1  0  0  0  0
  6 29  1  0  0  0  0
  7 25  1  0  0  0  0
  7 58  1  0  0  0  0
 26  8  1  6  0  0  0
  8 59  1  0  0  0  0
  9 25  2  0  0  0  0
 27 10  1  1  0  0  0
 10 60  1  0  0  0  0
 28 11  1  6  0  0  0
 11 61  1  0  0  0  0
 12 31  1  0  0  0  0
 12 63  1  0  0  0  0
 13 30  2  0  0  0  0
 14 39  1  0  0  0  0
 14 69  1  0  0  0  0
 15 16  1  0  0  0  0
 15 17  1  0  0  0  0
 15 20  1  0  0  0  0
 15 40  1  6  0  0  0
 16 19  1  0  0  0  0
 16 21  1  0  0  0  0
 17 18  1  0  0  0  0
 17 22  1  0  0  0  0
 17 41  1  6  0  0  0
 18 19  1  0  0  0  0
 18 42  1  0  0  0  0
 19 43  1  0  0  0  0
 19 44  1  0  0  0  0
 20 45  1  0  0  0  0
 21 46  1  0  0  0  0
 21 47  1  0  0  0  0
 22 23  2  0  0  0  0
 22 25  1  0  0  0  0
 23 49  1  0  0  0  0
 24 26  1  0  0  0  0
 24 51  1  0  0  0  0
 26 27  1  0  0  0  0
 26 52  1  0  0  0  0
 27 28  1  0  0  0  0
 27 53  1  0  0  0  0
 28 29  1  0  0  0  0
 28 54  1  0  0  0  0
 29 31  1  1  0  0  0
 29 55  1  0  0  0  0
 30 32  1  0  0  0  0
 31 56  1  0  0  0  0
 31 57  1  0  0  0  0
 32 33  2  0  0  0  0
 32 62  1  0  0  0  0
 33 34  1  0  0  0  0
 33 64  1  0  0  0  0
 34 35  2  0  0  0  0
 34 36  1  0  0  0  0
 35 37  1  0  0  0  0
 35 65  1  0  0  0  0
 36 38  2  0  0  0  0
 36 66  1  0  0  0  0
 37 39  2  0  0  0  0
 37 67  1  0  0  0  0
 38 39  1  0  0  0  0
 38 68  1  0  0  0  0
M  END
> <PUBCHEM_COMPOUND_CID>
132577017

> <PUBCHEM_COMPOUND_CANONICALIZED>
1

> <PUBCHEM_CACTVS_COMPLEXITY>
945

> <PUBCHEM_CACTVS_HBOND_ACCEPTOR>
14

> <PUBCHEM_CACTVS_HBOND_DONOR>
8

> <PUBCHEM_CACTVS_ROTATABLE_BOND>
9

> <PUBCHEM_CACTVS_SUBSKEYS>
AAADceB4PAAAAAAAAAAAAAAAAAAAAYAAAAA0QIAAAAAAAEABAAAAGgAACAAADVSwmAMwDoAABgCIAiDSCAACCAAgIAAIiAEGCMgZNjKCMRKicAAlwBEPuYfK7PzOoAAAAAAAAABAAAAAAAAAAYQADAAAAA==

> <PUBCHEM_IUPAC_OPENEYE_NAME>
(1S,4aS,5S,7R,7aS)-5,7-dihydroxy-7-[[(E)-3-(4-hydroxyphenyl)prop-2-enoyl]oxymethyl]-1-[(2S,3R,4S,5S,6R)-3,4,5-trihydroxy-6-(hydroxymethyl)tetrahydropyran-2-yl]oxy-4a,5,6,7a-tetrahydro-1H-cyclopenta[c]pyran-4-carboxylic acid

> <PUBCHEM_IUPAC_CAS_NAME>
(1S,4aS,5S,7R,7aS)-5,7-dihydroxy-7-[[(E)-3-(4-hydroxyphenyl)-1-oxoprop-2-enoxy]methyl]-1-[[(2S,3R,4S,5S,6R)-3,4,5-trihydroxy-6-(hydroxymethyl)-2-oxanyl]oxy]-4a,5,6,7a-tetrahydro-1H-cyclopenta[c]pyran-4-carboxylic acid

> <PUBCHEM_IUPAC_NAME_MARKUP>
(1<I>S</I>,4<I>a</I><I>S</I>,5<I>S</I>,7<I>R</I>,7<I>a</I><I>S</I>)-5,7-dihydroxy-7-[[(<I>E</I>)-3-(4-hydroxyphenyl)prop-2-enoyl]oxymethyl]-1-[(2<I>S</I>,3<I>R</I>,4<I>S</I>,5<I>S</I>,6<I>R</I>)-3,4,5-trihydroxy-6-(hydroxymethyl)oxan-2-yl]oxy-4<I>a</I>,5,6,7<I>a</I>-tetrahydro-1<I>H</I>-cyclopenta[c]pyran-4-carboxylic acid

> <PUBCHEM_IUPAC_NAME>
(1S,4aS,5S,7R,7aS)-5,7-dihydroxy-7-[[(E)-3-(4-hydroxyphenyl)prop-2-enoyl]oxymethyl]-1-[(2S,3R,4S,5S,6R)-3,4,5-trihydroxy-6-(hydroxymethyl)oxan-2-yl]oxy-4a,5,6,7a-tetrahydro-1H-cyclopenta[c]pyran-4-carboxylic acid

> <PUBCHEM_IUPAC_SYSTEMATIC_NAME>
(1S,4aS,5S,7R,7aS)-1-[(2S,3R,4S,5S,6R)-6-(hydroxymethyl)-3,4,5-tris(oxidanyl)oxan-2-yl]oxy-7-[[(E)-3-(4-hydroxyphenyl)prop-2-enoyl]oxymethyl]-5,7-bis(oxidanyl)-4a,5,6,7a-tetrahydro-1H-cyclopenta[c]pyran-4-carboxylic acid

> <PUBCHEM_IUPAC_TRADITIONAL_NAME>
(1S,4aS,5S,7R,7aS)-5,7-dihydroxy-7-[[(E)-3-(4-hydroxyphenyl)acryloyl]oxymethyl]-1-[(2S,3R,4S,5S,6R)-3,4,5-trihydroxy-6-methylol-tetrahydropyran-2-yl]oxy-4a,5,6,7a-tetrahydro-1H-cyclopenta[c]pyran-4-carboxylic acid

> <PUBCHEM_IUPAC_INCHI>
InChI=1S/C25H30O14/c26-8-15-19(30)20(31)21(32)24(38-15)39-23-18-17(13(9-36-23)22(33)34)14(28)7-25(18,35)10-37-16(29)6-3-11-1-4-12(27)5-2-11/h1-6,9,14-15,17-21,23-24,26-28,30-32,35H,7-8,10H2,(H,33,34)/b6-3+/t14-,15+,17-,18+,19+,20-,21+,23-,24-,25-/m0/s1

> <PUBCHEM_IUPAC_INCHIKEY>
WBMJBOLXSFUFQE-CLCKZOABSA-N

> <PUBCHEM_XLOGP3_AA>
-1.7

> <PUBCHEM_EXACT_MASS>
554.16355563

> <PUBCHEM_MOLECULAR_FORMULA>
C25H30O14

> <PUBCHEM_MOLECULAR_WEIGHT>
554.5

> <PUBCHEM_OPENEYE_CAN_SMILES>
C1C(C2C(C1(COC(=O)C=CC3=CC=C(C=C3)O)O)C(OC=C2C(=O)O)OC4C(C(C(C(O4)CO)O)O)O)O

> <PUBCHEM_OPENEYE_ISO_SMILES>
C1[C@@H]([C@H]2[C@@H]([C@]1(COC(=O)/C=C/C3=CC=C(C=C3)O)O)[C@@H](OC=C2C(=O)O)O[C@H]4[C@@H]([C@H]([C@@H]([C@H](O4)CO)O)O)O)O

> <PUBCHEM_CACTVS_TPSA>
233

> <PUBCHEM_MONOISOTOPIC_WEIGHT>
554.16355563

> <PUBCHEM_TOTAL_CHARGE>
0

> <PUBCHEM_HEAVY_ATOM_COUNT>
39

> <PUBCHEM_ATOM_DEF_STEREO_COUNT>
10

> <PUBCHEM_ATOM_UDEF_STEREO_COUNT>
0

> <PUBCHEM_BOND_DEF_STEREO_COUNT>
1

> <PUBCHEM_BOND_UDEF_STEREO_COUNT>
0

> <PUBCHEM_ISOTOPIC_ATOM_COUNT>
0

> <PUBCHEM_COMPONENT_COUNT>
1

> <PUBCHEM_CACTVS_TAUTO_COUNT>
-1

> <PUBCHEM_COORDINATE_TYPE>
1
5
255

> <PUBCHEM_BONDANNOTATIONS>
16  1  5
27  10  5
28  11  6
15  40  6
17  41  6
29  31  5
20  3  6
24  3  5
34  35  8
34  36  8
35  37  8
36  38  8
37  39  8
38  39  8
18  4  5
26  8  6

$$$$
