 
  -OEChem-10192104052D

 59 60  0     1  0  0  0  0  0999 V2000
    5.4641    0.4400    0.0000 O   0  0  0  0  0  0  0  0  0  0  0  0
    5.4641   -2.5600    0.0000 O   0  0  0  0  0  0  0  0  0  0  0  0
    3.7320   -1.5600    0.0000 O   0  0  0  0  0  0  0  0  0  0  0  0
    7.1962    0.4400    0.0000 O   0  0  0  0  0  0  0  0  0  0  0  0
    3.7320    1.4400    0.0000 O   0  0  0  0  0  0  0  0  0  0  0  0
    8.0622   -0.0600    0.0000 O   0  0  0  0  0  0  0  0  0  0  0  0
    3.7320   -2.5600    0.0000 O   0  0  0  0  0  0  0  0  0  0  0  0
    2.8660   -0.0600    0.0000 O   0  0  0  0  0  0  0  0  0  0  0  0
    6.3301    1.9400    0.0000 O   0  0  0  0  0  0  0  0  0  0  0  0
    2.0000    1.4400    0.0000 O   0  0  0  0  0  0  0  0  0  0  0  0
    7.1962   -1.5600    0.0000 N   0  0  0  0  0  0  0  0  0  0  0  0
    7.1962    3.4400    0.0000 N   0  0  0  0  0  0  0  0  0  0  0  0
    5.4641   -1.5600    0.0000 C   0  0  3  0  0  0  0  0  0  0  0  0
    6.3301   -1.0600    0.0000 C   0  0  3  0  0  0  0  0  0  0  0  0
    4.5981   -1.0600    0.0000 C   0  0  3  0  0  0  0  0  0  0  0  0
    4.5981   -0.0600    0.0000 C   0  0  3  0  0  0  0  0  0  0  0  0
    6.3301   -0.0600    0.0000 C   0  0  3  0  0  0  0  0  0  0  0  0
    3.7320    0.4400    0.0000 C   0  0  0  0  0  0  0  0  0  0  0  0
    8.0622   -1.0600    0.0000 C   0  0  0  0  0  0  0  0  0  0  0  0
    4.5981   -3.0600    0.0000 C   0  0  0  0  0  0  0  0  0  0  0  0
    2.8660   -1.0600    0.0000 C   0  0  0  0  0  0  0  0  0  0  0  0
    7.1962    1.4400    0.0000 C   0  0  0  0  0  0  0  0  0  0  0  0
    8.9282   -1.5600    0.0000 C   0  0  0  0  0  0  0  0  0  0  0  0
    4.5981   -4.0600    0.0000 C   0  0  0  0  0  0  0  0  0  0  0  0
    2.0000   -1.5600    0.0000 C   0  0  0  0  0  0  0  0  0  0  0  0
    2.8660    1.9400    0.0000 C   0  0  0  0  0  0  0  0  0  0  0  0
    8.0622    1.9400    0.0000 C   0  0  0  0  0  0  0  0  0  0  0  0
    8.0622    2.9400    0.0000 C   0  0  0  0  0  0  0  0  0  0  0  0
    2.8660    2.9400    0.0000 C   0  0  0  0  0  0  0  0  0  0  0  0
    8.9282    1.4400    0.0000 C   0  0  0  0  0  0  0  0  0  0  0  0
    8.9282    3.4400    0.0000 C   0  0  0  0  0  0  0  0  0  0  0  0
    9.7942    1.9400    0.0000 C   0  0  0  0  0  0  0  0  0  0  0  0
    9.7942    2.9400    0.0000 C   0  0  0  0  0  0  0  0  0  0  0  0
    6.0010   -1.8700    0.0000 H   0  0  0  0  0  0  0  0  0  0  0  0
    6.8671   -0.7500    0.0000 H   0  0  0  0  0  0  0  0  0  0  0  0
    4.5981   -1.6800    0.0000 H   0  0  0  0  0  0  0  0  0  0  0  0
    4.5981    0.5600    0.0000 H   0  0  0  0  0  0  0  0  0  0  0  0
    6.3301    0.5600    0.0000 H   0  0  0  0  0  0  0  0  0  0  0  0
    3.1215    0.5477    0.0000 H   0  0  0  0  0  0  0  0  0  0  0  0
    3.5200   -0.1426    0.0000 H   0  0  0  0  0  0  0  0  0  0  0  0
    7.1962   -2.1800    0.0000 H   0  0  0  0  0  0  0  0  0  0  0  0
    8.6182   -2.0969    0.0000 H   0  0  0  0  0  0  0  0  0  0  0  0
    9.4651   -1.8700    0.0000 H   0  0  0  0  0  0  0  0  0  0  0  0
    9.2382   -1.0231    0.0000 H   0  0  0  0  0  0  0  0  0  0  0  0
    3.9781   -4.0600    0.0000 H   0  0  0  0  0  0  0  0  0  0  0  0
    4.5981   -4.6800    0.0000 H   0  0  0  0  0  0  0  0  0  0  0  0
    5.2181   -4.0600    0.0000 H   0  0  0  0  0  0  0  0  0  0  0  0
    1.6900   -1.0231    0.0000 H   0  0  0  0  0  0  0  0  0  0  0  0
    1.4631   -1.8700    0.0000 H   0  0  0  0  0  0  0  0  0  0  0  0
    2.3100   -2.0969    0.0000 H   0  0  0  0  0  0  0  0  0  0  0  0
    3.4860    2.9400    0.0000 H   0  0  0  0  0  0  0  0  0  0  0  0
    2.8660    3.5600    0.0000 H   0  0  0  0  0  0  0  0  0  0  0  0
    2.2460    2.9400    0.0000 H   0  0  0  0  0  0  0  0  0  0  0  0
    8.9282    0.8200    0.0000 H   0  0  0  0  0  0  0  0  0  0  0  0
    8.9282    4.0600    0.0000 H   0  0  0  0  0  0  0  0  0  0  0  0
   10.3312    1.6300    0.0000 H   0  0  0  0  0  0  0  0  0  0  0  0
   10.3312    3.2500    0.0000 H   0  0  0  0  0  0  0  0  0  0  0  0
    7.1962    4.0600    0.0000 H   0  0  0  0  0  0  0  0  0  0  0  0
    6.6592    3.1300    0.0000 H   0  0  0  0  0  0  0  0  0  0  0  0
  1 16  1  0  0  0  0
  1 17  1  0  0  0  0
  2 13  1  0  0  0  0
  2 20  1  0  0  0  0
  3 15  1  0  0  0  0
  3 21  1  0  0  0  0
  4 17  1  0  0  0  0
  4 22  1  0  0  0  0
  5 18  1  0  0  0  0
  5 26  1  0  0  0  0
  6 19  2  0  0  0  0
  7 20  2  0  0  0  0
  8 21  2  0  0  0  0
  9 22  2  0  0  0  0
 10 26  2  0  0  0  0
 11 14  1  0  0  0  0
 11 19  1  0  0  0  0
 11 41  1  0  0  0  0
 12 28  1  0  0  0  0
 12 58  1  0  0  0  0
 12 59  1  0  0  0  0
 13 14  1  0  0  0  0
 13 15  1  0  0  0  0
 13 34  1  0  0  0  0
 14 17  1  0  0  0  0
 14 35  1  0  0  0  0
 15 16  1  0  0  0  0
 15 36  1  0  0  0  0
 16 18  1  0  0  0  0
 16 37  1  0  0  0  0
 17 38  1  0  0  0  0
 18 39  1  0  0  0  0
 18 40  1  0  0  0  0
 19 23  1  0  0  0  0
 20 24  1  0  0  0  0
 21 25  1  0  0  0  0
 22 27  1  0  0  0  0
 23 42  1  0  0  0  0
 23 43  1  0  0  0  0
 23 44  1  0  0  0  0
 24 45  1  0  0  0  0
 24 46  1  0  0  0  0
 24 47  1  0  0  0  0
 25 48  1  0  0  0  0
 25 49  1  0  0  0  0
 25 50  1  0  0  0  0
 26 29  1  0  0  0  0
 27 28  1  0  0  0  0
 27 30  2  0  0  0  0
 28 31  2  0  0  0  0
 29 51  1  0  0  0  0
 29 52  1  0  0  0  0
 29 53  1  0  0  0  0
 30 32  1  0  0  0  0
 30 54  1  0  0  0  0
 31 33  1  0  0  0  0
 31 55  1  0  0  0  0
 32 33  2  0  0  0  0
 32 56  1  0  0  0  0
 33 57  1  0  0  0  0
M  END
> <PUBCHEM_COMPOUND_CID>
118986409

> <PUBCHEM_COMPOUND_CANONICALIZED>
1

> <PUBCHEM_CACTVS_COMPLEXITY>
757

> <PUBCHEM_CACTVS_HBOND_ACCEPTOR>
11

> <PUBCHEM_CACTVS_HBOND_DONOR>
2

> <PUBCHEM_CACTVS_ROTATABLE_BOND>
11

> <PUBCHEM_CACTVS_SUBSKEYS>
AAADceB7PAAAAAAAAAAAAAAAAAAAAAAAAAA0QAAAAAAAAAABAAAAHgAQAAAADDzxmAcyyILABACIAiXSWACCAAAkAgAIiIEIbMgbJjqAtZmnMYBn1gGe6cf4+C+OAAAAAAACAAAAAAAAAAQAAAAAAAAAAA==

> <PUBCHEM_IUPAC_OPENEYE_NAME>
[3-acetamido-4,5-diacetoxy-6-(acetoxymethyl)tetrahydropyran-2-yl] 2-aminobenzoate

> <PUBCHEM_IUPAC_CAS_NAME>
2-aminobenzoic acid [3-acetamido-4,5-diacetyloxy-6-(acetyloxymethyl)-2-oxanyl] ester

> <PUBCHEM_IUPAC_NAME_MARKUP>
[3-acetamido-4,5-diacetyloxy-6-(acetyloxymethyl)oxan-2-yl] 2-aminobenzoate

> <PUBCHEM_IUPAC_NAME>
[3-acetamido-4,5-diacetyloxy-6-(acetyloxymethyl)oxan-2-yl] 2-aminobenzoate

> <PUBCHEM_IUPAC_SYSTEMATIC_NAME>
[3-acetamido-4,5-diacetyloxy-6-(acetyloxymethyl)oxan-2-yl] 2-azanylbenzoate

> <PUBCHEM_IUPAC_TRADITIONAL_NAME>
2-aminobenzoic acid [3-acetamido-4,5-diacetoxy-6-(acetoxymethyl)tetrahydropyran-2-yl] ester

> <PUBCHEM_IUPAC_INCHI>
InChI=1S/C21H26N2O10/c1-10(24)23-17-19(31-13(4)27)18(30-12(3)26)16(9-29-11(2)25)32-21(17)33-20(28)14-7-5-6-8-15(14)22/h5-8,16-19,21H,9,22H2,1-4H3,(H,23,24)

> <PUBCHEM_IUPAC_INCHIKEY>
JMPFYZYAZIBFIO-UHFFFAOYSA-N

> <PUBCHEM_XLOGP3_AA>
0.7

> <PUBCHEM_EXACT_MASS>
466.15874503

> <PUBCHEM_MOLECULAR_FORMULA>
C21H26N2O10

> <PUBCHEM_MOLECULAR_WEIGHT>
466.4

> <PUBCHEM_OPENEYE_CAN_SMILES>
CC(=O)NC1C(C(C(OC1OC(=O)C2=CC=CC=C2N)COC(=O)C)OC(=O)C)OC(=O)C

> <PUBCHEM_OPENEYE_ISO_SMILES>
CC(=O)NC1C(C(C(OC1OC(=O)C2=CC=CC=C2N)COC(=O)C)OC(=O)C)OC(=O)C

> <PUBCHEM_CACTVS_TPSA>
170

> <PUBCHEM_MONOISOTOPIC_WEIGHT>
466.15874503

> <PUBCHEM_TOTAL_CHARGE>
0

> <PUBCHEM_HEAVY_ATOM_COUNT>
33

> <PUBCHEM_ATOM_DEF_STEREO_COUNT>
0

> <PUBCHEM_ATOM_UDEF_STEREO_COUNT>
5

> <PUBCHEM_BOND_DEF_STEREO_COUNT>
0

> <PUBCHEM_BOND_UDEF_STEREO_COUNT>
0

> <PUBCHEM_ISOTOPIC_ATOM_COUNT>
0

> <PUBCHEM_COMPONENT_COUNT>
1

> <PUBCHEM_CACTVS_TAUTO_COUNT>
-1

> <PUBCHEM_COORDINATE_TYPE>
1
5
255

> <PUBCHEM_BONDANNOTATIONS>
14  11  3
16  18  3
13  2  3
27  28  8
27  30  8
28  31  8
15  3  3
30  32  8
31  33  8
32  33  8
17  4  3

$$$$
