 
  -OEChem-10192103552D

 41 41  0     1  0  0  0  0  0999 V2000
    6.0010    0.9050    0.0000 O   0  0  0  0  0  0  0  0  0  0  0  0
    7.7331    0.9050    0.0000 O   0  0  0  0  0  0  0  0  0  0  0  0
    4.2690    1.9050    0.0000 O   0  0  0  0  0  0  0  0  0  0  0  0
    2.5369    0.9050    0.0000 O   0  0  0  0  0  0  0  0  0  0  0  0
    7.7331   -1.0950    0.0000 O   0  0  0  0  0  0  0  0  0  0  0  0
    4.2690   -1.0950    0.0000 O   0  0  0  0  0  0  0  0  0  0  0  0
    6.0010   -1.0950    0.0000 O   0  0  0  0  0  0  0  0  0  0  0  0
   11.1972   -2.0950    0.0000 O   0  0  0  0  0  0  0  0  0  0  0  0
   10.3312    2.4050    0.0000 O   0  5  0  0  0  0  0  0  0  0  0  0
    8.5991    2.4050    0.0000 O   0  0  0  0  0  0  0  0  0  0  0  0
    9.4651    1.9050    0.0000 N   0  3  0  0  0  0  0  0  0  0  0  0
    5.1350    0.4050    0.0000 C   0  0  3  0  0  0  0  0  0  0  0  0
    4.2690    0.9050    0.0000 C   0  0  2  0  0  0  0  0  0  0  0  0
    6.8671    0.4050    0.0000 C   0  0  1  0  0  0  0  0  0  0  0  0
    3.4030    0.4050    0.0000 C   0  0  0  0  0  0  0  0  0  0  0  0
    6.8671   -0.5950    0.0000 C   0  0  0  0  0  0  0  0  0  0  0  0
    5.1350   -0.5950    0.0000 C   0  0  0  0  0  0  0  0  0  0  0  0
    8.5991    0.4050    0.0000 C   0  0  0  0  0  0  0  0  0  0  0  0
    9.4651    0.9050    0.0000 C   0  0  0  0  0  0  0  0  0  0  0  0
   10.3312   -0.5950    0.0000 C   0  0  0  0  0  0  0  0  0  0  0  0
    8.5991   -0.5950    0.0000 C   0  0  0  0  0  0  0  0  0  0  0  0
   10.3312    0.4050    0.0000 C   0  0  0  0  0  0  0  0  0  0  0  0
    9.4651   -1.0950    0.0000 C   0  0  0  0  0  0  0  0  0  0  0  0
   11.1972   -1.0950    0.0000 C   0  0  0  0  0  0  0  0  0  0  0  0
    5.6720    0.0950    0.0000 H   0  0  0  0  0  0  0  0  0  0  0  0
    4.8059    1.2150    0.0000 H   0  0  0  0  0  0  0  0  0  0  0  0
    6.3301    0.0950    0.0000 H   0  0  0  0  0  0  0  0  0  0  0  0
    3.0044   -0.0699    0.0000 H   0  0  0  0  0  0  0  0  0  0  0  0
    3.8015   -0.0699    0.0000 H   0  0  0  0  0  0  0  0  0  0  0  0
    6.2565   -0.4873    0.0000 H   0  0  0  0  0  0  0  0  0  0  0  0
    6.6550   -1.1776    0.0000 H   0  0  0  0  0  0  0  0  0  0  0  0
    8.0622   -0.9050    0.0000 H   0  0  0  0  0  0  0  0  0  0  0  0
    3.7320    2.2150    0.0000 H   0  0  0  0  0  0  0  0  0  0  0  0
   10.8681    0.7150    0.0000 H   0  0  0  0  0  0  0  0  0  0  0  0
    9.4651   -1.7150    0.0000 H   0  0  0  0  0  0  0  0  0  0  0  0
   11.8078   -1.2027    0.0000 H   0  0  0  0  0  0  0  0  0  0  0  0
   11.4092   -0.5124    0.0000 H   0  0  0  0  0  0  0  0  0  0  0  0
    2.0000    0.5950    0.0000 H   0  0  0  0  0  0  0  0  0  0  0  0
    7.7331   -1.7150    0.0000 H   0  0  0  0  0  0  0  0  0  0  0  0
    4.2690   -1.7150    0.0000 H   0  0  0  0  0  0  0  0  0  0  0  0
   11.7341   -2.4050    0.0000 H   0  0  0  0  0  0  0  0  0  0  0  0
  1 12  1  0  0  0  0
 14  1  1  1  0  0  0
  2 14  1  0  0  0  0
  2 18  1  0  0  0  0
 13  3  1  6  0  0  0
  3 33  1  0  0  0  0
  4 15  1  0  0  0  0
  4 38  1  0  0  0  0
  5 16  1  0  0  0  0
  5 39  1  0  0  0  0
  6 17  1  0  0  0  0
  6 40  1  0  0  0  0
  7 17  2  0  0  0  0
  8 24  1  0  0  0  0
  8 41  1  0  0  0  0
  9 11  1  0  0  0  0
 10 11  2  0  0  0  0
 11 19  1  0  0  0  0
 12 13  1  0  0  0  0
 12 17  1  0  0  0  0
 12 25  1  0  0  0  0
 13 15  1  0  0  0  0
 13 26  1  0  0  0  0
 14 16  1  0  0  0  0
 14 27  1  0  0  0  0
 15 28  1  0  0  0  0
 15 29  1  0  0  0  0
 16 30  1  0  0  0  0
 16 31  1  0  0  0  0
 18 19  2  0  0  0  0
 18 21  1  0  0  0  0
 19 22  1  0  0  0  0
 20 22  2  0  0  0  0
 20 23  1  0  0  0  0
 20 24  1  0  0  0  0
 21 23  2  0  0  0  0
 21 32  1  0  0  0  0
 22 34  1  0  0  0  0
 23 35  1  0  0  0  0
 24 36  1  0  0  0  0
 24 37  1  0  0  0  0
M  CHG  2   9  -1  11   1
M  END
> <PUBCHEM_COMPOUND_CID>
68329907

> <PUBCHEM_COMPOUND_CANONICALIZED>
1

> <PUBCHEM_CACTVS_COMPLEXITY>
414

> <PUBCHEM_CACTVS_HBOND_ACCEPTOR>
10

> <PUBCHEM_CACTVS_HBOND_DONOR>
5

> <PUBCHEM_CACTVS_ROTATABLE_BOND>
9

> <PUBCHEM_CACTVS_SUBSKEYS>
AAADceByPAAAAAAAAAAAAAAAAAAAAAAAAAAwAAAAAAAAAAABAAAAHgAECAAADByxmAMwzoAQRgCJAiTSSwKCCAAgIgAoiAFHbIofNjaEsZ+jeCDl4FEP+Afy4CwOIAAAQAAAEABAAACAAAAgAAAAAAAAAA==

> <PUBCHEM_IUPAC_OPENEYE_NAME>
(3S)-3,4-dihydroxy-2-[(1S)-2-hydroxy-1-[4-(hydroxymethyl)-2-nitro-phenoxy]ethoxy]butanoic acid

> <PUBCHEM_IUPAC_CAS_NAME>
(3S)-3,4-dihydroxy-2-[(1S)-2-hydroxy-1-[4-(hydroxymethyl)-2-nitrophenoxy]ethoxy]butanoic acid

> <PUBCHEM_IUPAC_NAME_MARKUP>
(3<I>S</I>)-3,4-dihydroxy-2-[(1<I>S</I>)-2-hydroxy-1-[4-(hydroxymethyl)-2-nitrophenoxy]ethoxy]butanoic acid

> <PUBCHEM_IUPAC_NAME>
(3S)-3,4-dihydroxy-2-[(1S)-2-hydroxy-1-[4-(hydroxymethyl)-2-nitrophenoxy]ethoxy]butanoic acid

> <PUBCHEM_IUPAC_SYSTEMATIC_NAME>
(3S)-2-[(1S)-1-[4-(hydroxymethyl)-2-nitro-phenoxy]-2-oxidanyl-ethoxy]-3,4-bis(oxidanyl)butanoic acid

> <PUBCHEM_IUPAC_TRADITIONAL_NAME>
(3S)-3,4-dihydroxy-2-[(1S)-2-hydroxy-1-(4-methylol-2-nitro-phenoxy)ethoxy]butyric acid

> <PUBCHEM_IUPAC_INCHI>
InChI=1S/C13H17NO10/c15-4-7-1-2-10(8(3-7)14(21)22)23-11(6-17)24-12(13(19)20)9(18)5-16/h1-3,9,11-12,15-18H,4-6H2,(H,19,20)/t9-,11+,12?/m0/s1

> <PUBCHEM_IUPAC_INCHIKEY>
AQYSDMIGYKJZFX-WKAHHKJFSA-N

> <PUBCHEM_XLOGP3_AA>
-1.5

> <PUBCHEM_EXACT_MASS>
347.08524574

> <PUBCHEM_MOLECULAR_FORMULA>
C13H17NO10

> <PUBCHEM_MOLECULAR_WEIGHT>
347.27

> <PUBCHEM_OPENEYE_CAN_SMILES>
C1=CC(=C(C=C1CO)[N+](=O)[O-])OC(CO)OC(C(CO)O)C(=O)O

> <PUBCHEM_OPENEYE_ISO_SMILES>
C1=CC(=C(C=C1CO)[N+](=O)[O-])O[C@@H](CO)OC([C@H](CO)O)C(=O)O

> <PUBCHEM_CACTVS_TPSA>
183

> <PUBCHEM_MONOISOTOPIC_WEIGHT>
347.08524574

> <PUBCHEM_TOTAL_CHARGE>
0

> <PUBCHEM_HEAVY_ATOM_COUNT>
24

> <PUBCHEM_ATOM_DEF_STEREO_COUNT>
2

> <PUBCHEM_ATOM_UDEF_STEREO_COUNT>
1

> <PUBCHEM_BOND_DEF_STEREO_COUNT>
0

> <PUBCHEM_BOND_UDEF_STEREO_COUNT>
0

> <PUBCHEM_ISOTOPIC_ATOM_COUNT>
0

> <PUBCHEM_COMPONENT_COUNT>
1

> <PUBCHEM_CACTVS_TAUTO_COUNT>
-1

> <PUBCHEM_COORDINATE_TYPE>
1
5
255

> <PUBCHEM_BONDANNOTATIONS>
14  1  5
12  17  3
18  19  8
18  21  8
19  22  8
20  22  8
20  23  8
21  23  8
13  3  6

$$$$
