 
  -OEChem-10192104012D

 49 51  0     1  0  0  0  0  0999 V2000
    3.7981   -0.0427    0.0000 O   0  0  0  0  0  0  0  0  0  0  0  0
    5.5301    1.9573    0.0000 O   0  0  0  0  0  0  0  0  0  0  0  0
    2.9320    1.4573    0.0000 O   0  0  0  0  0  0  0  0  0  0  0  0
    2.9320    3.4573    0.0000 O   0  0  0  0  0  0  0  0  0  0  0  0
    7.2785   -4.0773    0.0000 O   0  0  0  0  0  0  0  0  0  0  0  0
    9.0602   -3.0668    0.0000 O   0  0  0  0  0  0  0  0  0  0  0  0
    9.0602   -1.0186    0.0000 O   0  0  0  0  0  0  0  0  0  0  0  0
    9.9282   -2.5702    0.0000 O   0  0  0  0  0  0  0  0  0  0  0  0
    5.5301   -1.0427    0.0000 N   0  0  0  0  0  0  0  0  0  0  0  0
    5.5301   -3.0427    0.0000 N   0  0  0  0  0  0  0  0  0  0  0  0
    7.2901   -1.0080    0.0000 N   0  0  0  0  0  0  0  0  0  0  0  0
    8.1962   -2.5635    0.0000 N   0  0  0  0  0  0  0  0  0  0  0  0
    4.6641    0.4573    0.0000 C   0  0  3  0  0  0  0  0  0  0  0  0
    5.5301   -0.0427    0.0000 C   0  0  0  0  0  0  0  0  0  0  0  0
    4.6641    1.4573    0.0000 C   0  0  3  0  0  0  0  0  0  0  0  0
    3.7981    1.9573    0.0000 C   0  0  3  0  0  0  0  0  0  0  0  0
    4.6641   -1.5427    0.0000 C   0  0  0  0  0  0  0  0  0  0  0  0
    6.3961   -1.5427    0.0000 C   0  0  0  0  0  0  0  0  0  0  0  0
    4.6641   -2.5427    0.0000 C   0  0  0  0  0  0  0  0  0  0  0  0
    3.7702   -1.0080    0.0000 C   0  0  0  0  0  0  0  0  0  0  0  0
    6.3961   -2.5427    0.0000 C   0  0  0  0  0  0  0  0  0  0  0  0
    3.7981    2.9573    0.0000 C   0  0  0  0  0  0  0  0  0  0  0  0
    2.8641   -1.5219    0.0000 C   0  0  0  0  0  0  0  0  0  0  0  0
    3.7702   -3.0774    0.0000 C   0  0  0  0  0  0  0  0  0  0  0  0
    2.8641   -2.5635    0.0000 C   0  0  0  0  0  0  0  0  0  0  0  0
    7.2901   -3.0774    0.0000 C   0  0  0  0  0  0  0  0  0  0  0  0
    2.0000   -1.0186    0.0000 C   0  0  0  0  0  0  0  0  0  0  0  0
    2.0000   -3.0668    0.0000 C   0  0  0  0  0  0  0  0  0  0  0  0
    8.1962   -1.5219    0.0000 C   0  0  0  0  0  0  0  0  0  0  0  0
    4.6641   -0.1627    0.0000 H   0  0  0  0  0  0  0  0  0  0  0  0
    6.1407   -0.1504    0.0000 H   0  0  0  0  0  0  0  0  0  0  0  0
    5.7422    0.5399    0.0000 H   0  0  0  0  0  0  0  0  0  0  0  0
    4.6641    2.0773    0.0000 H   0  0  0  0  0  0  0  0  0  0  0  0
    3.7981    1.3373    0.0000 H   0  0  0  0  0  0  0  0  0  0  0  0
    3.7773   -0.3881    0.0000 H   0  0  0  0  0  0  0  0  0  0  0  0
    4.4087    2.8496    0.0000 H   0  0  0  0  0  0  0  0  0  0  0  0
    4.0101    3.5399    0.0000 H   0  0  0  0  0  0  0  0  0  0  0  0
    3.7773   -3.6973    0.0000 H   0  0  0  0  0  0  0  0  0  0  0  0
    3.2611    0.2673    0.0000 H   0  0  0  0  0  0  0  0  0  0  0  0
    5.5301    2.5773    0.0000 H   0  0  0  0  0  0  0  0  0  0  0  0
    2.3951    1.7673    0.0000 H   0  0  0  0  0  0  0  0  0  0  0  0
    2.3121   -0.4828    0.0000 H   0  0  0  0  0  0  0  0  0  0  0  0
    1.4643   -0.7065    0.0000 H   0  0  0  0  0  0  0  0  0  0  0  0
    1.6879   -1.5543    0.0000 H   0  0  0  0  0  0  0  0  0  0  0  0
    1.6879   -2.5311    0.0000 H   0  0  0  0  0  0  0  0  0  0  0  0
    1.4643   -3.3789    0.0000 H   0  0  0  0  0  0  0  0  0  0  0  0
    2.3121   -3.6026    0.0000 H   0  0  0  0  0  0  0  0  0  0  0  0
    2.9320    4.0773    0.0000 H   0  0  0  0  0  0  0  0  0  0  0  0
   10.4639   -2.8823    0.0000 H   0  0  0  0  0  0  0  0  0  0  0  0
  1 13  1  0  0  0  0
  1 39  1  0  0  0  0
  2 15  1  0  0  0  0
  2 40  1  0  0  0  0
  3 16  1  0  0  0  0
  3 41  1  0  0  0  0
  4 22  1  0  0  0  0
  4 48  1  0  0  0  0
  5 26  2  0  0  0  0
  6  8  1  0  0  0  0
  6 12  1  0  0  0  0
  7 29  2  0  0  0  0
  8 49  1  0  0  0  0
  9 14  1  0  0  0  0
  9 17  1  0  0  0  0
  9 18  1  0  0  0  0
 10 19  1  0  0  0  0
 10 21  2  0  0  0  0
 11 18  2  0  0  0  0
 11 29  1  0  0  0  0
 12 26  1  0  0  0  0
 12 29  1  0  0  0  0
 13 14  1  0  0  0  0
 13 15  1  0  0  0  0
 13 30  1  0  0  0  0
 14 31  1  0  0  0  0
 14 32  1  0  0  0  0
 15 16  1  0  0  0  0
 15 33  1  0  0  0  0
 16 22  1  0  0  0  0
 16 34  1  0  0  0  0
 17 19  2  0  0  0  0
 17 20  1  0  0  0  0
 18 21  1  0  0  0  0
 19 24  1  0  0  0  0
 20 23  2  0  0  0  0
 20 35  1  0  0  0  0
 21 26  1  0  0  0  0
 22 36  1  0  0  0  0
 22 37  1  0  0  0  0
 23 25  1  0  0  0  0
 23 27  1  0  0  0  0
 24 25  2  0  0  0  0
 24 38  1  0  0  0  0
 25 28  1  0  0  0  0
 27 42  1  0  0  0  0
 27 43  1  0  0  0  0
 27 44  1  0  0  0  0
 28 45  1  0  0  0  0
 28 46  1  0  0  0  0
 28 47  1  0  0  0  0
M  END
> <PUBCHEM_COMPOUND_CID>
129691762

> <PUBCHEM_COMPOUND_CANONICALIZED>
1

> <PUBCHEM_CACTVS_COMPLEXITY>
728

> <PUBCHEM_CACTVS_HBOND_ACCEPTOR>
9

> <PUBCHEM_CACTVS_HBOND_DONOR>
5

> <PUBCHEM_CACTVS_ROTATABLE_BOND>
6

> <PUBCHEM_CACTVS_SUBSKEYS>
AAADceB7vAAAAAAAAAAAAAAAAAAAAAAAAAAwQIAAAAAAAACBAAAAHgAEDAAADBzhmAYzwIMQAgCoAydydACCAAEhAgAhiAEodIiLcCrA2ZGUYAhnhSLZyAfwkIIOiAAAQAAQACAQAACAACAAQAAAAAAAAA==

> <PUBCHEM_IUPAC_OPENEYE_NAME>
3-hydroperoxy-7,8-dimethyl-10-(2,3,4,5-tetrahydroxypentyl)benzo[g]pteridine-2,4-dione

> <PUBCHEM_IUPAC_CAS_NAME>
3-hydroperoxy-7,8-dimethyl-10-(2,3,4,5-tetrahydroxypentyl)benzo[g]pteridine-2,4-dione

> <PUBCHEM_IUPAC_NAME_MARKUP>
3-hydroperoxy-7,8-dimethyl-10-(2,3,4,5-tetrahydroxypentyl)benzo[g]pteridine-2,4-dione

> <PUBCHEM_IUPAC_NAME>
3-hydroperoxy-7,8-dimethyl-10-(2,3,4,5-tetrahydroxypentyl)benzo[g]pteridine-2,4-dione

> <PUBCHEM_IUPAC_SYSTEMATIC_NAME>
3-(dioxidanyl)-7,8-dimethyl-10-[2,3,4,5-tetrakis(oxidanyl)pentyl]benzo[g]pteridine-2,4-dione

> <PUBCHEM_IUPAC_TRADITIONAL_NAME>
3-hydroperoxy-7,8-dimethyl-10-(2,3,4,5-tetrahydroxypentyl)benzo[g]pteridine-2,4-quinone

> <PUBCHEM_IUPAC_INCHI>
InChI=1S/C17H20N4O8/c1-7-3-9-10(4-8(7)2)20(5-11(23)14(25)12(24)6-22)15-13(18-9)16(26)21(29-28)17(27)19-15/h3-4,11-12,14,22-25,28H,5-6H2,1-2H3

> <PUBCHEM_IUPAC_INCHIKEY>
IYFYTTMJCMMQLJ-UHFFFAOYSA-N

> <PUBCHEM_XLOGP3>
-1.2

> <PUBCHEM_EXACT_MASS>
408.12811361

> <PUBCHEM_MOLECULAR_FORMULA>
C17H20N4O8

> <PUBCHEM_MOLECULAR_WEIGHT>
408.4

> <PUBCHEM_OPENEYE_CAN_SMILES>
CC1=CC2=C(C=C1C)N(C3=NC(=O)N(C(=O)C3=N2)OO)CC(C(C(CO)O)O)O

> <PUBCHEM_OPENEYE_ISO_SMILES>
CC1=CC2=C(C=C1C)N(C3=NC(=O)N(C(=O)C3=N2)OO)CC(C(C(CO)O)O)O

> <PUBCHEM_CACTVS_TPSA>
176

> <PUBCHEM_MONOISOTOPIC_WEIGHT>
408.12811361

> <PUBCHEM_TOTAL_CHARGE>
0

> <PUBCHEM_HEAVY_ATOM_COUNT>
29

> <PUBCHEM_ATOM_DEF_STEREO_COUNT>
0

> <PUBCHEM_ATOM_UDEF_STEREO_COUNT>
3

> <PUBCHEM_BOND_DEF_STEREO_COUNT>
0

> <PUBCHEM_BOND_UDEF_STEREO_COUNT>
0

> <PUBCHEM_ISOTOPIC_ATOM_COUNT>
0

> <PUBCHEM_COMPONENT_COUNT>
1

> <PUBCHEM_CACTVS_TAUTO_COUNT>
-1

> <PUBCHEM_COORDINATE_TYPE>
1
5
255

> <PUBCHEM_BONDANNOTATIONS>
13  1  3
10  19  8
10  21  8
11  18  8
11  29  8
12  26  8
12  29  8
17  19  8
17  20  8
19  24  8
15  2  3
20  23  8
21  26  8
23  25  8
24  25  8
16  3  3
9  17  8
9  18  8

$$$$
