 
  -OEChem-10192104312D

 86 87  0     1  0  0  0  0  0999 V2000
    5.4641   -3.0000    0.0000 O   0  0  0  0  0  0  0  0  0  0  0  0
    5.4641   -6.0000    0.0000 O   0  0  0  0  0  0  0  0  0  0  0  0
    3.7320   -5.0000    0.0000 O   0  0  0  0  0  0  0  0  0  0  0  0
    7.1962   -3.0000    0.0000 O   0  0  0  0  0  0  0  0  0  0  0  0
    3.7320   -2.0000    0.0000 O   0  0  0  0  0  0  0  0  0  0  0  0
    8.0622   -3.5000    0.0000 O   0  0  0  0  0  0  0  0  0  0  0  0
    3.7320   -6.0000    0.0000 O   0  0  0  0  0  0  0  0  0  0  0  0
    2.8660   -3.5000    0.0000 O   0  0  0  0  0  0  0  0  0  0  0  0
    8.9282    0.0000    0.0000 O   0  0  0  0  0  0  0  0  0  0  0  0
    2.0000   -2.0000    0.0000 O   0  0  0  0  0  0  0  0  0  0  0  0
    9.7942   -0.5000    0.0000 O   0  0  0  0  0  0  0  0  0  0  0  0
    5.4641    4.0000    0.0000 O   0  0  0  0  0  0  0  0  0  0  0  0
    4.5981    2.5000    0.0000 O   0  0  0  0  0  0  0  0  0  0  0  0
    7.1962   -5.0000    0.0000 N   0  0  0  0  0  0  0  0  0  0  0  0
    8.9282   -2.0000    0.0000 N   0  0  0  0  0  0  0  0  0  0  0  0
    7.1962    0.0000    0.0000 N   0  0  0  0  0  0  0  0  0  0  0  0
    6.3301    2.5000    0.0000 N   0  0  0  0  0  0  0  0  0  0  0  0
    5.4641   -5.0000    0.0000 C   0  0  2  0  0  0  0  0  0  0  0  0
    6.3301   -4.5000    0.0000 C   0  0  2  0  0  0  0  0  0  0  0  0
    4.5981   -4.5000    0.0000 C   0  0  2  0  0  0  0  0  0  0  0  0
    4.5981   -3.5000    0.0000 C   0  0  1  0  0  0  0  0  0  0  0  0
    6.3301   -3.5000    0.0000 C   0  0  2  0  0  0  0  0  0  0  0  0
    3.7320   -3.0000    0.0000 C   0  0  0  0  0  0  0  0  0  0  0  0
    7.1962   -2.0000    0.0000 C   0  0  0  0  0  0  0  0  0  0  0  0
    8.0622   -4.5000    0.0000 C   0  0  0  0  0  0  0  0  0  0  0  0
    8.0622   -1.5000    0.0000 C   0  0  1  0  0  0  0  0  0  0  0  0
    4.5981   -6.5000    0.0000 C   0  0  0  0  0  0  0  0  0  0  0  0
    2.8660   -4.5000    0.0000 C   0  0  0  0  0  0  0  0  0  0  0  0
    8.9282   -5.0000    0.0000 C   0  0  0  0  0  0  0  0  0  0  0  0
    4.5981   -7.5000    0.0000 C   0  0  0  0  0  0  0  0  0  0  0  0
    8.0622   -0.5000    0.0000 C   0  0  0  0  0  0  0  0  0  0  0  0
    2.0000   -5.0000    0.0000 C   0  0  0  0  0  0  0  0  0  0  0  0
    2.8660   -1.5000    0.0000 C   0  0  0  0  0  0  0  0  0  0  0  0
    2.8660   -0.5000    0.0000 C   0  0  0  0  0  0  0  0  0  0  0  0
    9.7942   -1.5000    0.0000 C   0  0  0  0  0  0  0  0  0  0  0  0
    7.1962    1.0000    0.0000 C   0  0  0  0  0  0  0  0  0  0  0  0
   10.6603   -2.0000    0.0000 C   0  0  0  0  0  0  0  0  0  0  0  0
    6.3301    1.5000    0.0000 C   0  0  0  0  0  0  0  0  0  0  0  0
    5.4641    3.0000    0.0000 C   0  0  0  0  0  0  0  0  0  0  0  0
    4.5981    4.5000    0.0000 C   0  0  0  0  0  0  0  0  0  0  0  0
    4.5981    5.5000    0.0000 C   0  0  0  0  0  0  0  0  0  0  0  0
    5.4641    6.0000    0.0000 C   0  0  0  0  0  0  0  0  0  0  0  0
    3.7320    6.0000    0.0000 C   0  0  0  0  0  0  0  0  0  0  0  0
    5.4641    7.0000    0.0000 C   0  0  0  0  0  0  0  0  0  0  0  0
    3.7320    7.0000    0.0000 C   0  0  0  0  0  0  0  0  0  0  0  0
    4.5981    7.5000    0.0000 C   0  0  0  0  0  0  0  0  0  0  0  0
    6.0010   -5.3100    0.0000 H   0  0  0  0  0  0  0  0  0  0  0  0
    6.8671   -4.1900    0.0000 H   0  0  0  0  0  0  0  0  0  0  0  0
    4.5981   -5.1200    0.0000 H   0  0  0  0  0  0  0  0  0  0  0  0
    4.5981   -2.8800    0.0000 H   0  0  0  0  0  0  0  0  0  0  0  0
    6.3301   -2.8800    0.0000 H   0  0  0  0  0  0  0  0  0  0  0  0
    3.1215   -2.8923    0.0000 H   0  0  0  0  0  0  0  0  0  0  0  0
    3.5200   -3.5826    0.0000 H   0  0  0  0  0  0  0  0  0  0  0  0
    7.1962   -5.6200    0.0000 H   0  0  0  0  0  0  0  0  0  0  0  0
    6.9841   -1.4174    0.0000 H   0  0  0  0  0  0  0  0  0  0  0  0
    6.5856   -2.1077    0.0000 H   0  0  0  0  0  0  0  0  0  0  0  0
    8.0622   -2.1200    0.0000 H   0  0  0  0  0  0  0  0  0  0  0  0
    8.6182   -5.5369    0.0000 H   0  0  0  0  0  0  0  0  0  0  0  0
    9.4651   -5.3100    0.0000 H   0  0  0  0  0  0  0  0  0  0  0  0
    9.2382   -4.4631    0.0000 H   0  0  0  0  0  0  0  0  0  0  0  0
    3.9781   -7.5000    0.0000 H   0  0  0  0  0  0  0  0  0  0  0  0
    4.5981   -8.1200    0.0000 H   0  0  0  0  0  0  0  0  0  0  0  0
    5.2181   -7.5000    0.0000 H   0  0  0  0  0  0  0  0  0  0  0  0
    1.6900   -4.4631    0.0000 H   0  0  0  0  0  0  0  0  0  0  0  0
    1.4631   -5.3100    0.0000 H   0  0  0  0  0  0  0  0  0  0  0  0
    2.3100   -5.5369    0.0000 H   0  0  0  0  0  0  0  0  0  0  0  0
    8.9282   -2.6200    0.0000 H   0  0  0  0  0  0  0  0  0  0  0  0
    6.6592   -0.3100    0.0000 H   0  0  0  0  0  0  0  0  0  0  0  0
    3.4860   -0.5000    0.0000 H   0  0  0  0  0  0  0  0  0  0  0  0
    2.8660    0.1200    0.0000 H   0  0  0  0  0  0  0  0  0  0  0  0
    2.2460   -0.5000    0.0000 H   0  0  0  0  0  0  0  0  0  0  0  0
    7.8067    0.8923    0.0000 H   0  0  0  0  0  0  0  0  0  0  0  0
    7.4082    1.5826    0.0000 H   0  0  0  0  0  0  0  0  0  0  0  0
   10.3503   -2.5369    0.0000 H   0  0  0  0  0  0  0  0  0  0  0  0
   11.1972   -2.3100    0.0000 H   0  0  0  0  0  0  0  0  0  0  0  0
   10.9703   -1.4631    0.0000 H   0  0  0  0  0  0  0  0  0  0  0  0
    5.7196    1.6077    0.0000 H   0  0  0  0  0  0  0  0  0  0  0  0
    6.1181    0.9174    0.0000 H   0  0  0  0  0  0  0  0  0  0  0  0
    6.8671    2.8100    0.0000 H   0  0  0  0  0  0  0  0  0  0  0  0
    3.9875    4.6077    0.0000 H   0  0  0  0  0  0  0  0  0  0  0  0
    4.3860    3.9174    0.0000 H   0  0  0  0  0  0  0  0  0  0  0  0
    6.0010    5.6900    0.0000 H   0  0  0  0  0  0  0  0  0  0  0  0
    3.1951    5.6900    0.0000 H   0  0  0  0  0  0  0  0  0  0  0  0
    6.0010    7.3100    0.0000 H   0  0  0  0  0  0  0  0  0  0  0  0
    3.1951    7.3100    0.0000 H   0  0  0  0  0  0  0  0  0  0  0  0
    4.5981    8.1200    0.0000 H   0  0  0  0  0  0  0  0  0  0  0  0
  1 21  1  0  0  0  0
  1 22  1  0  0  0  0
 18  2  1  1  0  0  0
  2 27  1  0  0  0  0
 20  3  1  1  0  0  0
  3 28  1  0  0  0  0
 22  4  1  6  0  0  0
  4 24  1  0  0  0  0
  5 23  1  0  0  0  0
  5 33  1  0  0  0  0
  6 25  2  0  0  0  0
  7 27  2  0  0  0  0
  8 28  2  0  0  0  0
  9 31  2  0  0  0  0
 10 33  2  0  0  0  0
 11 35  2  0  0  0  0
 12 39  1  0  0  0  0
 12 40  1  0  0  0  0
 13 39  2  0  0  0  0
 19 14  1  6  0  0  0
 14 25  1  0  0  0  0
 14 54  1  0  0  0  0
 26 15  1  1  0  0  0
 15 35  1  0  0  0  0
 15 67  1  0  0  0  0
 16 31  1  0  0  0  0
 16 36  1  0  0  0  0
 16 68  1  0  0  0  0
 17 38  1  0  0  0  0
 17 39  1  0  0  0  0
 17 79  1  0  0  0  0
 18 19  1  0  0  0  0
 18 20  1  0  0  0  0
 18 47  1  0  0  0  0
 19 22  1  0  0  0  0
 19 48  1  0  0  0  0
 20 21  1  0  0  0  0
 20 49  1  0  0  0  0
 21 23  1  1  0  0  0
 21 50  1  0  0  0  0
 22 51  1  0  0  0  0
 23 52  1  0  0  0  0
 23 53  1  0  0  0  0
 24 26  1  0  0  0  0
 24 55  1  0  0  0  0
 24 56  1  0  0  0  0
 25 29  1  0  0  0  0
 26 31  1  0  0  0  0
 26 57  1  0  0  0  0
 27 30  1  0  0  0  0
 28 32  1  0  0  0  0
 29 58  1  0  0  0  0
 29 59  1  0  0  0  0
 29 60  1  0  0  0  0
 30 61  1  0  0  0  0
 30 62  1  0  0  0  0
 30 63  1  0  0  0  0
 32 64  1  0  0  0  0
 32 65  1  0  0  0  0
 32 66  1  0  0  0  0
 33 34  1  0  0  0  0
 34 69  1  0  0  0  0
 34 70  1  0  0  0  0
 34 71  1  0  0  0  0
 35 37  1  0  0  0  0
 36 38  1  0  0  0  0
 36 72  1  0  0  0  0
 36 73  1  0  0  0  0
 37 74  1  0  0  0  0
 37 75  1  0  0  0  0
 37 76  1  0  0  0  0
 38 77  1  0  0  0  0
 38 78  1  0  0  0  0
 40 41  1  0  0  0  0
 40 80  1  0  0  0  0
 40 81  1  0  0  0  0
 41 42  2  0  0  0  0
 41 43  1  0  0  0  0
 42 44  1  0  0  0  0
 42 82  1  0  0  0  0
 43 45  2  0  0  0  0
 43 83  1  0  0  0  0
 44 46  2  0  0  0  0
 44 84  1  0  0  0  0
 45 46  1  0  0  0  0
 45 85  1  0  0  0  0
 46 86  1  0  0  0  0
M  END
> <PUBCHEM_COMPOUND_CID>
10628054

> <PUBCHEM_COMPOUND_CANONICALIZED>
1

> <PUBCHEM_CACTVS_COMPLEXITY>
1080

> <PUBCHEM_CACTVS_HBOND_ACCEPTOR>
13

> <PUBCHEM_CACTVS_HBOND_DONOR>
4

> <PUBCHEM_CACTVS_ROTATABLE_BOND>
19

> <PUBCHEM_CACTVS_SUBSKEYS>
AAADcfB7vAAAAAAAAAAAAAAAAAAAAAAAAAA0QAAAAAAAAAABAAAAHgAQAAAADDzxmAcyCILABACIAiHSGAACAAAgAAAIiIGICIkbZiaAsTi/MAAn9gGeqAfw8C8OAAAAAAAAAAAAAAAAAAAAAAAAAAAAAA==

> <PUBCHEM_IUPAC_OPENEYE_NAME>
[(2R,3R,4R,5R,6S)-5-acetamido-6-[(2S)-2-acetamido-3-[2-(benzyloxycarbonylamino)ethylamino]-3-oxo-propoxy]-3,4-diacetoxy-tetrahydropyran-2-yl]methyl acetate

> <PUBCHEM_IUPAC_CAS_NAME>
acetic acid [(2R,3R,4R,5R,6S)-5-acetamido-6-[(2S)-2-acetamido-3-oxo-3-[2-(phenylmethoxycarbonylamino)ethylamino]propoxy]-3,4-diacetyloxy-2-oxanyl]methyl ester

> <PUBCHEM_IUPAC_NAME_MARKUP>
[(2<I>R</I>,3<I>R</I>,4<I>R</I>,5<I>R</I>,6<I>S</I>)-5-acetamido-6-[(2<I>S</I>)-2-acetamido-3-oxo-3-[2-(phenylmethoxycarbonylamino)ethylamino]propoxy]-3,4-diacetyloxyoxan-2-yl]methyl acetate

> <PUBCHEM_IUPAC_NAME>
[(2R,3R,4R,5R,6S)-5-acetamido-6-[(2S)-2-acetamido-3-oxo-3-[2-(phenylmethoxycarbonylamino)ethylamino]propoxy]-3,4-diacetyloxyoxan-2-yl]methyl acetate

> <PUBCHEM_IUPAC_SYSTEMATIC_NAME>
[(2R,3R,4R,5R,6S)-5-acetamido-6-[(2S)-2-acetamido-3-oxidanylidene-3-[2-(phenylmethoxycarbonylamino)ethylamino]propoxy]-3,4-diacetyloxy-oxan-2-yl]methyl ethanoate

> <PUBCHEM_IUPAC_TRADITIONAL_NAME>
acetic acid [(2R,3R,4R,5R,6S)-5-acetamido-6-[(2S)-2-acetamido-3-[2-(benzyloxycarbonylamino)ethylamino]-3-keto-propoxy]-3,4-diacetoxy-tetrahydropyran-2-yl]methyl ester

> <PUBCHEM_IUPAC_INCHI>
InChI=1S/C29H40N4O13/c1-16(34)32-22(27(39)30-11-12-31-29(40)43-13-21-9-7-6-8-10-21)14-42-28-24(33-17(2)35)26(45-20(5)38)25(44-19(4)37)23(46-28)15-41-18(3)36/h6-10,22-26,28H,11-15H2,1-5H3,(H,30,39)(H,31,40)(H,32,34)(H,33,35)/t22-,23+,24+,25-,26+,28-/m0/s1

> <PUBCHEM_IUPAC_INCHIKEY>
LZACYFPVNZDPGS-QDNGFUOWSA-N

> <PUBCHEM_XLOGP3_AA>
-1

> <PUBCHEM_EXACT_MASS>
652.25918734

> <PUBCHEM_MOLECULAR_FORMULA>
C29H40N4O13

> <PUBCHEM_MOLECULAR_WEIGHT>
652.6

> <PUBCHEM_OPENEYE_CAN_SMILES>
CC(=O)NC1C(C(C(OC1OCC(C(=O)NCCNC(=O)OCC2=CC=CC=C2)NC(=O)C)COC(=O)C)OC(=O)C)OC(=O)C

> <PUBCHEM_OPENEYE_ISO_SMILES>
CC(=O)N[C@@H]1[C@H]([C@H]([C@H](O[C@@H]1OC[C@@H](C(=O)NCCNC(=O)OCC2=CC=CC=C2)NC(=O)C)COC(=O)C)OC(=O)C)OC(=O)C

> <PUBCHEM_CACTVS_TPSA>
223

> <PUBCHEM_MONOISOTOPIC_WEIGHT>
652.25918734

> <PUBCHEM_TOTAL_CHARGE>
0

> <PUBCHEM_HEAVY_ATOM_COUNT>
46

> <PUBCHEM_ATOM_DEF_STEREO_COUNT>
6

> <PUBCHEM_ATOM_UDEF_STEREO_COUNT>
0

> <PUBCHEM_BOND_DEF_STEREO_COUNT>
0

> <PUBCHEM_BOND_UDEF_STEREO_COUNT>
0

> <PUBCHEM_ISOTOPIC_ATOM_COUNT>
0

> <PUBCHEM_COMPONENT_COUNT>
1

> <PUBCHEM_CACTVS_TAUTO_COUNT>
-1

> <PUBCHEM_COORDINATE_TYPE>
1
5
255

> <PUBCHEM_BONDANNOTATIONS>
19  14  6
26  15  5
18  2  5
21  23  5
20  3  5
22  4  6
41  42  8
41  43  8
42  44  8
43  45  8
44  46  8
45  46  8

$$$$
