 
  -OEChem-10192104132D

 59 60  0     1  0  0  0  0  0999 V2000
    6.3479   -1.1153    0.0000 O   0  0  0  0  0  0  0  0  0  0  0  0
    4.9479   -2.5307    0.0000 O   0  0  0  0  0  0  0  0  0  0  0  0
    3.3006    1.9405    0.0000 O   0  0  0  0  0  0  0  0  0  0  0  0
    3.3006   -1.9955    0.0000 O   0  0  0  0  0  0  0  0  0  0  0  0
    8.0704    1.2413    0.0000 O   0  0  0  0  0  0  0  0  0  0  0  0
    7.0524    2.6426    0.0000 O   0  0  0  0  0  0  0  0  0  0  0  0
    7.3659   -0.3410    0.0000 O   0  0  0  0  0  0  0  0  0  0  0  0
    5.3298    2.4616    0.0000 O   0  0  0  0  0  0  0  0  0  0  0  0
    4.0000   -0.0275    0.0000 C   0  0  0  0  0  0  0  0  0  0  0  0
    4.5878    0.7815    0.0000 C   0  0  2  0  0  0  0  0  0  0  0  0
    4.5878   -0.8365    0.0000 C   0  0  1  0  0  0  0  0  0  0  0  0
    5.5388    0.4725    0.0000 C   0  0  1  0  0  0  0  0  0  0  0  0
    3.5000   -0.8935    0.0000 C   0  0  0  0  0  0  0  0  0  0  0  0
    3.5000    0.8385    0.0000 C   0  0  0  0  0  0  0  0  0  0  0  0
    5.5388   -0.5275    0.0000 C   0  0  0  0  0  0  0  0  0  0  0  0
    2.5000   -0.8935    0.0000 C   0  0  0  0  0  0  0  0  0  0  0  0
    2.5000    0.8385    0.0000 C   0  0  0  0  0  0  0  0  0  0  0  0
    2.0000   -0.0275    0.0000 C   0  0  0  0  0  0  0  0  0  0  0  0
    6.3479    1.0603    0.0000 C   0  0  0  0  0  0  0  0  0  0  0  0
    4.2788    1.7326    0.0000 C   0  0  0  0  0  0  0  0  0  0  0  0
    4.2788   -1.7876    0.0000 C   0  0  0  0  0  0  0  0  0  0  0  0
    7.2614    0.6536    0.0000 C   0  0  0  0  0  0  0  0  0  0  0  0
    6.2433    2.0548    0.0000 C   0  0  0  0  0  0  0  0  0  0  0  0
    4.6389   -3.4818    0.0000 C   0  0  0  0  0  0  0  0  0  0  0  0
    8.9840    0.8346    0.0000 C   0  0  0  0  0  0  0  0  0  0  0  0
    6.9478    3.6371    0.0000 C   0  0  0  0  0  0  0  0  0  0  0  0
    5.3080   -4.2249    0.0000 C   0  0  0  0  0  0  0  0  0  0  0  0
    9.7930    1.4224    0.0000 C   0  0  0  0  0  0  0  0  0  0  0  0
    7.7568    4.2249    0.0000 C   0  0  0  0  0  0  0  0  0  0  0  0
    5.0262    1.2199    0.0000 H   0  0  0  0  0  0  0  0  0  0  0  0
    5.0262   -1.2749    0.0000 H   0  0  0  0  0  0  0  0  0  0  0  0
    6.0913    0.1910    0.0000 H   0  0  0  0  0  0  0  0  0  0  0  0
    3.3923   -1.5041    0.0000 H   0  0  0  0  0  0  0  0  0  0  0  0
    4.0826   -1.1056    0.0000 H   0  0  0  0  0  0  0  0  0  0  0  0
    4.0826    1.0506    0.0000 H   0  0  0  0  0  0  0  0  0  0  0  0
    3.3923    1.4491    0.0000 H   0  0  0  0  0  0  0  0  0  0  0  0
    1.9174   -1.1056    0.0000 H   0  0  0  0  0  0  0  0  0  0  0  0
    2.6077   -1.5041    0.0000 H   0  0  0  0  0  0  0  0  0  0  0  0
    2.6077    1.4491    0.0000 H   0  0  0  0  0  0  0  0  0  0  0  0
    1.9174    1.0506    0.0000 H   0  0  0  0  0  0  0  0  0  0  0  0
    1.5250    0.3710    0.0000 H   0  0  0  0  0  0  0  0  0  0  0  0
    1.5250   -0.4260    0.0000 H   0  0  0  0  0  0  0  0  0  0  0  0
    6.8494    1.4247    0.0000 H   0  0  0  0  0  0  0  0  0  0  0  0
    4.6936    2.1933    0.0000 H   0  0  0  0  0  0  0  0  0  0  0  0
    4.0914   -3.1907    0.0000 H   0  0  0  0  0  0  0  0  0  0  0  0
    4.2572   -3.9703    0.0000 H   0  0  0  0  0  0  0  0  0  0  0  0
    8.6373    0.3206    0.0000 H   0  0  0  0  0  0  0  0  0  0  0  0
    9.4300    0.4039    0.0000 H   0  0  0  0  0  0  0  0  0  0  0  0
    6.6760    4.1944    0.0000 H   0  0  0  0  0  0  0  0  0  0  0  0
    6.3518    3.4662    0.0000 H   0  0  0  0  0  0  0  0  0  0  0  0
    4.8473   -4.6398    0.0000 H   0  0  0  0  0  0  0  0  0  0  0  0
    5.7229   -4.6857    0.0000 H   0  0  0  0  0  0  0  0  0  0  0  0
    5.7688   -3.8100    0.0000 H   0  0  0  0  0  0  0  0  0  0  0  0
   10.1574    0.9208    0.0000 H   0  0  0  0  0  0  0  0  0  0  0  0
   10.2946    1.7868    0.0000 H   0  0  0  0  0  0  0  0  0  0  0  0
    9.4286    1.9240    0.0000 H   0  0  0  0  0  0  0  0  0  0  0  0
    8.1213    3.7233    0.0000 H   0  0  0  0  0  0  0  0  0  0  0  0
    8.2584    4.5893    0.0000 H   0  0  0  0  0  0  0  0  0  0  0  0
    7.3924    4.7265    0.0000 H   0  0  0  0  0  0  0  0  0  0  0  0
  1 15  2  0  0  0  0
  2 21  1  0  0  0  0
  2 24  1  0  0  0  0
  3 20  2  0  0  0  0
  4 21  2  0  0  0  0
  5 22  1  0  0  0  0
  5 25  1  0  0  0  0
  6 23  1  0  0  0  0
  6 26  1  0  0  0  0
  7 22  2  0  0  0  0
  8 23  2  0  0  0  0
  9 10  1  0  0  0  0
  9 11  1  0  0  0  0
  9 13  1  0  0  0  0
  9 14  1  0  0  0  0
 10 12  1  0  0  0  0
 10 20  1  1  0  0  0
 10 30  1  0  0  0  0
 11 15  1  0  0  0  0
 11 21  1  1  0  0  0
 11 31  1  0  0  0  0
 12 15  1  0  0  0  0
 12 19  1  6  0  0  0
 12 32  1  0  0  0  0
 13 16  1  0  0  0  0
 13 33  1  0  0  0  0
 13 34  1  0  0  0  0
 14 17  1  0  0  0  0
 14 35  1  0  0  0  0
 14 36  1  0  0  0  0
 16 18  1  0  0  0  0
 16 37  1  0  0  0  0
 16 38  1  0  0  0  0
 17 18  1  0  0  0  0
 17 39  1  0  0  0  0
 17 40  1  0  0  0  0
 18 41  1  0  0  0  0
 18 42  1  0  0  0  0
 19 22  1  0  0  0  0
 19 23  1  0  0  0  0
 19 43  1  0  0  0  0
 20 44  1  0  0  0  0
 24 27  1  0  0  0  0
 24 45  1  0  0  0  0
 24 46  1  0  0  0  0
 25 28  1  0  0  0  0
 25 47  1  0  0  0  0
 25 48  1  0  0  0  0
 26 29  1  0  0  0  0
 26 49  1  0  0  0  0
 26 50  1  0  0  0  0
 27 51  1  0  0  0  0
 27 52  1  0  0  0  0
 27 53  1  0  0  0  0
 28 54  1  0  0  0  0
 28 55  1  0  0  0  0
 28 56  1  0  0  0  0
 29 57  1  0  0  0  0
 29 58  1  0  0  0  0
 29 59  1  0  0  0  0
M  END
> <PUBCHEM_COMPOUND_CID>
101523680

> <PUBCHEM_COMPOUND_CANONICALIZED>
1

> <PUBCHEM_CACTVS_COMPLEXITY>
631

> <PUBCHEM_CACTVS_HBOND_ACCEPTOR>
8

> <PUBCHEM_CACTVS_HBOND_DONOR>
0

> <PUBCHEM_CACTVS_ROTATABLE_BOND>
11

> <PUBCHEM_CACTVS_SUBSKEYS>
AAADceB4PAAAAAAAAAAAAAAAAAAAAYAAAAAwAAAAAAAAAAAAAAAAGgAAAAAADwSggAICCAAABAAIAIiQiAAAAAAAAAAAAAEAAAAAABYIAAACAAAFIAAAAAGLzvCvgAAAAAAAAAAAAAAAAAAAAQAACAAAAA==

> <PUBCHEM_IUPAC_OPENEYE_NAME>
diethyl 2-[(1S,2R,4S)-4-ethoxycarbonyl-1-formyl-3-oxo-spiro[4.5]decan-2-yl]propanedioate

> <PUBCHEM_IUPAC_CAS_NAME>
2-[(1S,2R,4S)-4-ethoxycarbonyl-1-formyl-3-oxo-2-spiro[4.5]decanyl]propanedioic acid diethyl ester

> <PUBCHEM_IUPAC_NAME_MARKUP>
diethyl 2-[(1<I>S</I>,2<I>R</I>,4<I>S</I>)-4-ethoxycarbonyl-1-formyl-3-oxospiro[4.5]decan-2-yl]propanedioate

> <PUBCHEM_IUPAC_NAME>
diethyl 2-[(1S,2R,4S)-4-ethoxycarbonyl-1-formyl-3-oxospiro[4.5]decan-2-yl]propanedioate

> <PUBCHEM_IUPAC_SYSTEMATIC_NAME>
diethyl 2-[(1S,2R,4S)-4-ethoxycarbonyl-1-methanoyl-3-oxidanylidene-spiro[4.5]decan-2-yl]propanedioate

> <PUBCHEM_IUPAC_TRADITIONAL_NAME>
2-[(1S,2R,4S)-4-carbethoxy-1-formyl-3-keto-spiro[4.5]decan-2-yl]malonic acid diethyl ester

> <PUBCHEM_IUPAC_INCHI>
InChI=1S/C21H30O8/c1-4-27-18(24)15(19(25)28-5-2)14-13(12-22)21(10-8-7-9-11-21)16(17(14)23)20(26)29-6-3/h12-16H,4-11H2,1-3H3/t13-,14+,16-/m0/s1

> <PUBCHEM_IUPAC_INCHIKEY>
SDWVBLUDUYWGFD-LZWOXQAQSA-N

> <PUBCHEM_XLOGP3_AA>
2.9

> <PUBCHEM_EXACT_MASS>
410.19406791

> <PUBCHEM_MOLECULAR_FORMULA>
C21H30O8

> <PUBCHEM_MOLECULAR_WEIGHT>
410.5

> <PUBCHEM_OPENEYE_CAN_SMILES>
CCOC(=O)C1C(=O)C(C(C12CCCCC2)C=O)C(C(=O)OCC)C(=O)OCC

> <PUBCHEM_OPENEYE_ISO_SMILES>
CCOC(=O)[C@@H]1C(=O)[C@H]([C@@H](C12CCCCC2)C=O)C(C(=O)OCC)C(=O)OCC

> <PUBCHEM_CACTVS_TPSA>
113

> <PUBCHEM_MONOISOTOPIC_WEIGHT>
410.19406791

> <PUBCHEM_TOTAL_CHARGE>
0

> <PUBCHEM_HEAVY_ATOM_COUNT>
29

> <PUBCHEM_ATOM_DEF_STEREO_COUNT>
3

> <PUBCHEM_ATOM_UDEF_STEREO_COUNT>
0

> <PUBCHEM_BOND_DEF_STEREO_COUNT>
0

> <PUBCHEM_BOND_UDEF_STEREO_COUNT>
0

> <PUBCHEM_ISOTOPIC_ATOM_COUNT>
0

> <PUBCHEM_COMPONENT_COUNT>
1

> <PUBCHEM_CACTVS_TAUTO_COUNT>
-1

> <PUBCHEM_COORDINATE_TYPE>
1
5
255

> <PUBCHEM_BONDANNOTATIONS>
10  20  5
11  21  5
12  19  6

$$$$
