 
  -OEChem-10192104202D

 51 50  0     1  0  0  0  0  0999 V2000
   12.3923    1.4050    0.0000 O   0  0  0  0  0  0  0  0  0  0  0  0
   11.5263    2.9050    0.0000 O   0  0  0  0  0  0  0  0  0  0  0  0
    8.9282   -2.5950    0.0000 O   0  0  0  0  0  0  0  0  0  0  0  0
   10.6603    1.4050    0.0000 C   0  0  3  0  0  0  0  0  0  0  0  0
    9.7942    1.9050    0.0000 C   0  0  0  0  0  0  0  0  0  0  0  0
    8.9282    1.4050    0.0000 C   0  0  0  0  0  0  0  0  0  0  0  0
    8.0622    1.9050    0.0000 C   0  0  0  0  0  0  0  0  0  0  0  0
    7.1962    1.4050    0.0000 C   0  0  0  0  0  0  0  0  0  0  0  0
   10.6603    0.4050    0.0000 C   0  0  0  0  0  0  0  0  0  0  0  0
    6.3301    1.9050    0.0000 C   0  0  0  0  0  0  0  0  0  0  0  0
    5.4641    1.4050    0.0000 C   0  0  0  0  0  0  0  0  0  0  0  0
    9.7942   -0.0950    0.0000 C   0  0  0  0  0  0  0  0  0  0  0  0
    4.5981    1.9050    0.0000 C   0  0  0  0  0  0  0  0  0  0  0  0
   11.5263    1.9050    0.0000 C   0  0  0  0  0  0  0  0  0  0  0  0
    9.7942   -1.0950    0.0000 C   0  0  0  0  0  0  0  0  0  0  0  0
    3.7320    1.4050    0.0000 C   0  0  0  0  0  0  0  0  0  0  0  0
    2.8660    1.9050    0.0000 C   0  0  0  0  0  0  0  0  0  0  0  0
    8.9282   -1.5950    0.0000 C   0  0  0  0  0  0  0  0  0  0  0  0
    2.0000    1.4050    0.0000 C   0  0  0  0  0  0  0  0  0  0  0  0
   11.1972    1.0950    0.0000 H   0  0  0  0  0  0  0  0  0  0  0  0
   10.1928    2.3800    0.0000 H   0  0  0  0  0  0  0  0  0  0  0  0
    9.3957    2.3800    0.0000 H   0  0  0  0  0  0  0  0  0  0  0  0
    8.5297    0.9301    0.0000 H   0  0  0  0  0  0  0  0  0  0  0  0
    9.3267    0.9301    0.0000 H   0  0  0  0  0  0  0  0  0  0  0  0
    8.4607    2.3800    0.0000 H   0  0  0  0  0  0  0  0  0  0  0  0
    7.6636    2.3800    0.0000 H   0  0  0  0  0  0  0  0  0  0  0  0
    6.7976    0.9301    0.0000 H   0  0  0  0  0  0  0  0  0  0  0  0
    7.5947    0.9301    0.0000 H   0  0  0  0  0  0  0  0  0  0  0  0
   10.8723   -0.1776    0.0000 H   0  0  0  0  0  0  0  0  0  0  0  0
   11.2708    0.5127    0.0000 H   0  0  0  0  0  0  0  0  0  0  0  0
    6.7287    2.3800    0.0000 H   0  0  0  0  0  0  0  0  0  0  0  0
    5.9316    2.3800    0.0000 H   0  0  0  0  0  0  0  0  0  0  0  0
    5.0656    0.9301    0.0000 H   0  0  0  0  0  0  0  0  0  0  0  0
    5.8626    0.9301    0.0000 H   0  0  0  0  0  0  0  0  0  0  0  0
    9.5822    0.4876    0.0000 H   0  0  0  0  0  0  0  0  0  0  0  0
    9.1836   -0.2027    0.0000 H   0  0  0  0  0  0  0  0  0  0  0  0
    4.9966    2.3800    0.0000 H   0  0  0  0  0  0  0  0  0  0  0  0
    4.1996    2.3800    0.0000 H   0  0  0  0  0  0  0  0  0  0  0  0
   10.0063   -1.6776    0.0000 H   0  0  0  0  0  0  0  0  0  0  0  0
   10.4048   -0.9873    0.0000 H   0  0  0  0  0  0  0  0  0  0  0  0
    3.3335    0.9301    0.0000 H   0  0  0  0  0  0  0  0  0  0  0  0
    4.1306    0.9301    0.0000 H   0  0  0  0  0  0  0  0  0  0  0  0
    3.2646    2.3800    0.0000 H   0  0  0  0  0  0  0  0  0  0  0  0
    2.4675    2.3800    0.0000 H   0  0  0  0  0  0  0  0  0  0  0  0
    8.7162   -1.0124    0.0000 H   0  0  0  0  0  0  0  0  0  0  0  0
    8.3176   -1.7027    0.0000 H   0  0  0  0  0  0  0  0  0  0  0  0
    1.6900    1.9419    0.0000 H   0  0  0  0  0  0  0  0  0  0  0  0
    1.4631    1.0950    0.0000 H   0  0  0  0  0  0  0  0  0  0  0  0
    2.3100    0.8681    0.0000 H   0  0  0  0  0  0  0  0  0  0  0  0
   12.9292    1.7150    0.0000 H   0  0  0  0  0  0  0  0  0  0  0  0
    8.3913   -2.9050    0.0000 H   0  0  0  0  0  0  0  0  0  0  0  0
  1 14  1  0  0  0  0
  1 50  1  0  0  0  0
  2 14  2  0  0  0  0
  3 18  1  0  0  0  0
  3 51  1  0  0  0  0
  4  5  1  0  0  0  0
  4  9  1  0  0  0  0
  4 14  1  0  0  0  0
  4 20  1  0  0  0  0
  5  6  1  0  0  0  0
  5 21  1  0  0  0  0
  5 22  1  0  0  0  0
  6  7  1  0  0  0  0
  6 23  1  0  0  0  0
  6 24  1  0  0  0  0
  7  8  1  0  0  0  0
  7 25  1  0  0  0  0
  7 26  1  0  0  0  0
  8 10  1  0  0  0  0
  8 27  1  0  0  0  0
  8 28  1  0  0  0  0
  9 12  1  0  0  0  0
  9 29  1  0  0  0  0
  9 30  1  0  0  0  0
 10 11  1  0  0  0  0
 10 31  1  0  0  0  0
 10 32  1  0  0  0  0
 11 13  1  0  0  0  0
 11 33  1  0  0  0  0
 11 34  1  0  0  0  0
 12 15  1  0  0  0  0
 12 35  1  0  0  0  0
 12 36  1  0  0  0  0
 13 16  1  0  0  0  0
 13 37  1  0  0  0  0
 13 38  1  0  0  0  0
 15 18  1  0  0  0  0
 15 39  1  0  0  0  0
 15 40  1  0  0  0  0
 16 17  1  0  0  0  0
 16 41  1  0  0  0  0
 16 42  1  0  0  0  0
 17 19  1  0  0  0  0
 17 43  1  0  0  0  0
 17 44  1  0  0  0  0
 18 45  1  0  0  0  0
 18 46  1  0  0  0  0
 19 47  1  0  0  0  0
 19 48  1  0  0  0  0
 19 49  1  0  0  0  0
M  END
> <PUBCHEM_COMPOUND_CID>
88767584

> <PUBCHEM_COMPOUND_CANONICALIZED>
1

> <PUBCHEM_CACTVS_COMPLEXITY>
204

> <PUBCHEM_CACTVS_HBOND_ACCEPTOR>
3

> <PUBCHEM_CACTVS_HBOND_DONOR>
2

> <PUBCHEM_CACTVS_ROTATABLE_BOND>
14

> <PUBCHEM_CACTVS_SUBSKEYS>
AAADcfB4MAAAAAAAAAAAAAAAAAAAAAAAAAAAAAAAAAAAAAAAAAAAGgAACAAADQCggAICCAAAAgAIAACQCAAAAAAAAAAAAAEAAAAAEBIAAAAAQAAEAAAAAAGIyPCOAAAAAAAAAAAAAAAAAAAAAAAAAAAAAA==

> <PUBCHEM_IUPAC_OPENEYE_NAME>
2-(4-hydroxybutyl)dodecanoic acid

> <PUBCHEM_IUPAC_CAS_NAME>
2-(4-hydroxybutyl)dodecanoic acid

> <PUBCHEM_IUPAC_NAME_MARKUP>
2-(4-hydroxybutyl)dodecanoic acid

> <PUBCHEM_IUPAC_NAME>
2-(4-hydroxybutyl)dodecanoic acid

> <PUBCHEM_IUPAC_SYSTEMATIC_NAME>
2-(4-oxidanylbutyl)dodecanoic acid

> <PUBCHEM_IUPAC_TRADITIONAL_NAME>
2-(4-hydroxybutyl)lauric acid

> <PUBCHEM_IUPAC_INCHI>
InChI=1S/C16H32O3/c1-2-3-4-5-6-7-8-9-12-15(16(18)19)13-10-11-14-17/h15,17H,2-14H2,1H3,(H,18,19)

> <PUBCHEM_IUPAC_INCHIKEY>
PHOBOUQHPQGTEA-UHFFFAOYSA-N

> <PUBCHEM_XLOGP3_AA>
5.4

> <PUBCHEM_EXACT_MASS>
272.23514488

> <PUBCHEM_MOLECULAR_FORMULA>
C16H32O3

> <PUBCHEM_MOLECULAR_WEIGHT>
272.42

> <PUBCHEM_OPENEYE_CAN_SMILES>
CCCCCCCCCCC(CCCCO)C(=O)O

> <PUBCHEM_OPENEYE_ISO_SMILES>
CCCCCCCCCCC(CCCCO)C(=O)O

> <PUBCHEM_CACTVS_TPSA>
57.5

> <PUBCHEM_MONOISOTOPIC_WEIGHT>
272.23514488

> <PUBCHEM_TOTAL_CHARGE>
0

> <PUBCHEM_HEAVY_ATOM_COUNT>
19

> <PUBCHEM_ATOM_DEF_STEREO_COUNT>
0

> <PUBCHEM_ATOM_UDEF_STEREO_COUNT>
1

> <PUBCHEM_BOND_DEF_STEREO_COUNT>
0

> <PUBCHEM_BOND_UDEF_STEREO_COUNT>
0

> <PUBCHEM_ISOTOPIC_ATOM_COUNT>
0

> <PUBCHEM_COMPONENT_COUNT>
1

> <PUBCHEM_CACTVS_TAUTO_COUNT>
-1

> <PUBCHEM_COORDINATE_TYPE>
1
5
255

> <PUBCHEM_BONDANNOTATIONS>
4  5  3

$$$$
