 
  -OEChem-10192103532D

 33 35  0     0  0  0  0  0  0999 V2000
    7.1962   -0.3623    0.0000 O   0  0  0  0  0  0  0  0  0  0  0  0
    2.8660   -2.8623    0.0000 O   0  0  0  0  0  0  0  0  0  0  0  0
    2.0000   -1.3623    0.0000 O   0  0  0  0  0  0  0  0  0  0  0  0
    7.1962    1.6377    0.0000 C   0  0  0  0  0  0  0  0  0  0  0  0
    6.3301    1.1377    0.0000 C   0  0  0  0  0  0  0  0  0  0  0  0
    7.1962    2.6377    0.0000 C   0  0  0  0  0  0  0  0  0  0  0  0
    6.3301    0.1377    0.0000 C   0  0  0  0  0  0  0  0  0  0  0  0
    5.4641    1.6377    0.0000 C   0  0  0  0  0  0  0  0  0  0  0  0
    5.4641   -0.3623    0.0000 C   0  0  0  0  0  0  0  0  0  0  0  0
    8.0901    1.1030    0.0000 C   0  0  0  0  0  0  0  0  0  0  0  0
    6.3301    3.1377    0.0000 C   0  0  0  0  0  0  0  0  0  0  0  0
    8.0901    3.1723    0.0000 C   0  0  0  0  0  0  0  0  0  0  0  0
    5.4641    2.6377    0.0000 C   0  0  0  0  0  0  0  0  0  0  0  0
    8.9962    1.6168    0.0000 C   0  0  0  0  0  0  0  0  0  0  0  0
    8.9962    2.6585    0.0000 C   0  0  0  0  0  0  0  0  0  0  0  0
    5.4641   -1.3623    0.0000 C   0  0  0  0  0  0  0  0  0  0  0  0
    4.5981    0.1377    0.0000 C   0  0  0  0  0  0  0  0  0  0  0  0
    3.7320   -1.3623    0.0000 C   0  0  0  0  0  0  0  0  0  0  0  0
    4.5981   -1.8623    0.0000 C   0  0  0  0  0  0  0  0  0  0  0  0
    3.7320   -0.3623    0.0000 C   0  0  0  0  0  0  0  0  0  0  0  0
    2.8660   -1.8623    0.0000 C   0  0  0  0  0  0  0  0  0  0  0  0
    4.9272    1.3277    0.0000 H   0  0  0  0  0  0  0  0  0  0  0  0
    8.0829    0.4830    0.0000 H   0  0  0  0  0  0  0  0  0  0  0  0
    6.3301    3.7577    0.0000 H   0  0  0  0  0  0  0  0  0  0  0  0
    8.0829    3.7923    0.0000 H   0  0  0  0  0  0  0  0  0  0  0  0
    4.9272    2.9477    0.0000 H   0  0  0  0  0  0  0  0  0  0  0  0
    9.5319    1.3048    0.0000 H   0  0  0  0  0  0  0  0  0  0  0  0
    6.0010   -1.6723    0.0000 H   0  0  0  0  0  0  0  0  0  0  0  0
    4.5981    0.7577    0.0000 H   0  0  0  0  0  0  0  0  0  0  0  0
    9.5319    2.9705    0.0000 H   0  0  0  0  0  0  0  0  0  0  0  0
    4.5981   -2.4823    0.0000 H   0  0  0  0  0  0  0  0  0  0  0  0
    3.1951   -0.0523    0.0000 H   0  0  0  0  0  0  0  0  0  0  0  0
    2.3291   -3.1723    0.0000 H   0  0  0  0  0  0  0  0  0  0  0  0
  1  7  2  0  0  0  0
  2 21  1  0  0  0  0
  2 33  1  0  0  0  0
  3 21  2  0  0  0  0
  4  5  1  0  0  0  0
  4  6  1  0  0  0  0
  4 10  2  0  0  0  0
  5  7  1  0  0  0  0
  5  8  2  0  0  0  0
  6 11  1  0  0  0  0
  6 12  2  0  0  0  0
  7  9  1  0  0  0  0
  8 13  1  0  0  0  0
  8 22  1  0  0  0  0
  9 16  2  0  0  0  0
  9 17  1  0  0  0  0
 10 14  1  0  0  0  0
 10 23  1  0  0  0  0
 11 13  2  0  0  0  0
 11 24  1  0  0  0  0
 12 15  1  0  0  0  0
 12 25  1  0  0  0  0
 13 26  1  0  0  0  0
 14 15  2  0  0  0  0
 14 27  1  0  0  0  0
 15 30  1  0  0  0  0
 16 19  1  0  0  0  0
 16 28  1  0  0  0  0
 17 20  2  0  0  0  0
 17 29  1  0  0  0  0
 18 19  2  0  0  0  0
 18 20  1  0  0  0  0
 18 21  1  0  0  0  0
 19 31  1  0  0  0  0
 20 32  1  0  0  0  0
M  END
> <PUBCHEM_COMPOUND_CID>
23218935

> <PUBCHEM_COMPOUND_CANONICALIZED>
1

> <PUBCHEM_CACTVS_COMPLEXITY>
395

> <PUBCHEM_CACTVS_HBOND_ACCEPTOR>
3

> <PUBCHEM_CACTVS_HBOND_DONOR>
1

> <PUBCHEM_CACTVS_ROTATABLE_BOND>
3

> <PUBCHEM_CACTVS_SUBSKEYS>
AAADccB4MAAAAAAAAAAAAAAAAAAAAAAAAAAwYMAAAAAAAADBVAAAGgAACAAADASAmAAwCMAAAgCIAqDSCAACAAAkAAAIiAEACMgIJjKAFRCAcQAkwAEImYeIyPCOwAACAAAQAACAAAQAACAAAAAAAAAAAA==

> <PUBCHEM_IUPAC_OPENEYE_NAME>
4-(naphthalene-1-carbonyl)benzoic acid

> <PUBCHEM_IUPAC_CAS_NAME>
4-[1-naphthalenyl(oxo)methyl]benzoic acid

> <PUBCHEM_IUPAC_NAME_MARKUP>
4-(naphthalene-1-carbonyl)benzoic acid

> <PUBCHEM_IUPAC_NAME>
4-(naphthalene-1-carbonyl)benzoic acid

> <PUBCHEM_IUPAC_SYSTEMATIC_NAME>
4-naphthalen-1-ylcarbonylbenzoic acid

> <PUBCHEM_IUPAC_TRADITIONAL_NAME>
4-(1-naphthoyl)benzoic acid

> <PUBCHEM_IUPAC_INCHI>
InChI=1S/C18H12O3/c19-17(13-8-10-14(11-9-13)18(20)21)16-7-3-5-12-4-1-2-6-15(12)16/h1-11H,(H,20,21)

> <PUBCHEM_IUPAC_INCHIKEY>
MRQCWYJFXPJHGP-UHFFFAOYSA-N

> <PUBCHEM_XLOGP3_AA>
4

> <PUBCHEM_EXACT_MASS>
276.078644241

> <PUBCHEM_MOLECULAR_FORMULA>
C18H12O3

> <PUBCHEM_MOLECULAR_WEIGHT>
276.3

> <PUBCHEM_OPENEYE_CAN_SMILES>
C1=CC=C2C(=C1)C=CC=C2C(=O)C3=CC=C(C=C3)C(=O)O

> <PUBCHEM_OPENEYE_ISO_SMILES>
C1=CC=C2C(=C1)C=CC=C2C(=O)C3=CC=C(C=C3)C(=O)O

> <PUBCHEM_CACTVS_TPSA>
54.4

> <PUBCHEM_MONOISOTOPIC_WEIGHT>
276.078644241

> <PUBCHEM_TOTAL_CHARGE>
0

> <PUBCHEM_HEAVY_ATOM_COUNT>
21

> <PUBCHEM_ATOM_DEF_STEREO_COUNT>
0

> <PUBCHEM_ATOM_UDEF_STEREO_COUNT>
0

> <PUBCHEM_BOND_DEF_STEREO_COUNT>
0

> <PUBCHEM_BOND_UDEF_STEREO_COUNT>
0

> <PUBCHEM_ISOTOPIC_ATOM_COUNT>
0

> <PUBCHEM_COMPONENT_COUNT>
1

> <PUBCHEM_CACTVS_TAUTO_COUNT>
-1

> <PUBCHEM_COORDINATE_TYPE>
1
5
255

> <PUBCHEM_BONDANNOTATIONS>
10  14  8
11  13  8
12  15  8
14  15  8
16  19  8
17  20  8
18  19  8
18  20  8
4  10  8
4  5  8
4  6  8
5  8  8
6  11  8
6  12  8
8  13  8
9  16  8
9  17  8

$$$$
