 
  -OEChem-10192104352D

 38 38  0     1  0  0  0  0  0999 V2000
    8.5131    2.6530    0.0000 S   0  0  0  0  0  0  0  0  0  0  0  0
    7.6751   -2.1258    0.0000 O   0  0  0  0  0  0  0  0  0  0  0  0
    2.4608   -2.4859    0.0000 O   0  0  0  0  0  0  0  0  0  0  0  0
    3.6197   -3.7730    0.0000 O   0  0  0  0  0  0  0  0  0  0  0  0
    7.6471    2.1530    0.0000 O   0  0  0  0  0  0  0  0  0  0  0  0
    9.3791    3.1530    0.0000 O   0  0  0  0  0  0  0  0  0  0  0  0
    8.0131    3.5190    0.0000 O   0  0  0  0  0  0  0  0  0  0  0  0
    9.0131    1.7870    0.0000 O   0  0  0  0  0  0  0  0  0  0  0  0
    5.1060   -2.4348    0.0000 C   0  0  3  0  0  0  0  0  0  0  0  0
    5.9150   -1.8470    0.0000 C   0  0  3  0  0  0  0  0  0  0  0  0
    5.4150   -3.3858    0.0000 C   0  0  0  0  0  0  0  0  0  0  0  0
    6.4150   -3.3858    0.0000 C   0  0  0  0  0  0  0  0  0  0  0  0
    6.7240   -2.4348    0.0000 C   0  0  0  0  0  0  0  0  0  0  0  0
    5.9150   -0.8470    0.0000 C   0  0  0  0  0  0  0  0  0  0  0  0
    4.1550   -2.1258    0.0000 C   0  0  0  0  0  0  0  0  0  0  0  0
    6.7810   -0.3470    0.0000 C   0  0  0  0  0  0  0  0  0  0  0  0
    3.4118   -2.7949    0.0000 C   0  0  0  0  0  0  0  0  0  0  0  0
    6.7810    0.6530    0.0000 C   0  0  0  0  0  0  0  0  0  0  0  0
    7.6471    1.1530    0.0000 C   0  0  3  0  0  0  0  0  0  0  0  0
    8.5131    0.6530    0.0000 C   0  0  0  0  0  0  0  0  0  0  0  0
    5.0090   -1.8224    0.0000 H   0  0  0  0  0  0  0  0  0  0  0  0
    6.4675   -1.5655    0.0000 H   0  0  0  0  0  0  0  0  0  0  0  0
    4.8086   -3.5147    0.0000 H   0  0  0  0  0  0  0  0  0  0  0  0
    5.4798   -4.0024    0.0000 H   0  0  0  0  0  0  0  0  0  0  0  0
    6.3502   -4.0024    0.0000 H   0  0  0  0  0  0  0  0  0  0  0  0
    7.0215   -3.5147    0.0000 H   0  0  0  0  0  0  0  0  0  0  0  0
    5.7030   -0.2644    0.0000 H   0  0  0  0  0  0  0  0  0  0  0  0
    5.3044   -0.9546    0.0000 H   0  0  0  0  0  0  0  0  0  0  0  0
    4.4460   -1.5783    0.0000 H   0  0  0  0  0  0  0  0  0  0  0  0
    3.6664   -1.7440    0.0000 H   0  0  0  0  0  0  0  0  0  0  0  0
    7.3180   -0.6570    0.0000 H   0  0  0  0  0  0  0  0  0  0  0  0
    6.2441    0.9630    0.0000 H   0  0  0  0  0  0  0  0  0  0  0  0
    8.1840    1.4630    0.0000 H   0  0  0  0  0  0  0  0  0  0  0  0
    2.0000   -2.9007    0.0000 H   0  0  0  0  0  0  0  0  0  0  0  0
    8.2031    0.1161    0.0000 H   0  0  0  0  0  0  0  0  0  0  0  0
    9.0500    0.3430    0.0000 H   0  0  0  0  0  0  0  0  0  0  0  0
    8.8231    1.1900    0.0000 H   0  0  0  0  0  0  0  0  0  0  0  0
    9.3791    3.7730    0.0000 H   0  0  0  0  0  0  0  0  0  0  0  0
  1  5  1  0  0  0  0
  1  6  1  0  0  0  0
  1  7  2  0  0  0  0
  1  8  2  0  0  0  0
  2 13  2  0  0  0  0
  3 17  1  0  0  0  0
  3 34  1  0  0  0  0
  4 17  2  0  0  0  0
  5 19  1  0  0  0  0
  6 38  1  0  0  0  0
  9 10  1  0  0  0  0
  9 11  1  0  0  0  0
  9 15  1  0  0  0  0
  9 21  1  0  0  0  0
 10 13  1  0  0  0  0
 10 14  1  0  0  0  0
 10 22  1  0  0  0  0
 11 12  1  0  0  0  0
 11 23  1  0  0  0  0
 11 24  1  0  0  0  0
 12 13  1  0  0  0  0
 12 25  1  0  0  0  0
 12 26  1  0  0  0  0
 14 16  1  0  0  0  0
 14 27  1  0  0  0  0
 14 28  1  0  0  0  0
 15 17  1  0  0  0  0
 15 29  1  0  0  0  0
 15 30  1  0  0  0  0
 16 18  2  0  0  0  0
 16 31  1  0  0  0  0
 18 19  1  0  0  0  0
 18 32  1  0  0  0  0
 19 20  1  0  0  0  0
 19 33  1  0  0  0  0
 20 35  1  0  0  0  0
 20 36  1  0  0  0  0
 20 37  1  0  0  0  0
M  END
> <PUBCHEM_COMPOUND_CID>
87909352

> <PUBCHEM_COMPOUND_CANONICALIZED>
1

> <PUBCHEM_CACTVS_COMPLEXITY>
488

> <PUBCHEM_CACTVS_HBOND_ACCEPTOR>
7

> <PUBCHEM_CACTVS_HBOND_DONOR>
2

> <PUBCHEM_CACTVS_ROTATABLE_BOND>
7

> <PUBCHEM_CACTVS_SUBSKEYS>
AAADceBwOABAAAAAAAAAAAAAAAAAAYAAAAAAAAAAAAAAAAAAAAAAGgAACAAADRSggAICCAAAAoCIAKDSCDAAAAAgAAAICAEAAAgABBIAAQAAUAAEgAAIAAOIzqCugAAAAAAAAAAAAAAAAAAAAAAACAAAAA==

> <PUBCHEM_IUPAC_OPENEYE_NAME>
2-[3-oxo-2-[(E)-4-sulfooxypent-2-enyl]cyclopentyl]acetic acid

> <PUBCHEM_IUPAC_CAS_NAME>
2-[3-oxo-2-[(E)-4-sulfooxypent-2-enyl]cyclopentyl]acetic acid

> <PUBCHEM_IUPAC_NAME_MARKUP>
2-[3-oxo-2-[(<I>E</I>)-4-sulfooxypent-2-enyl]cyclopentyl]acetic acid

> <PUBCHEM_IUPAC_NAME>
2-[3-oxo-2-[(E)-4-sulfooxypent-2-enyl]cyclopentyl]acetic acid

> <PUBCHEM_IUPAC_SYSTEMATIC_NAME>
2-[3-oxidanylidene-2-[(E)-4-sulfooxypent-2-enyl]cyclopentyl]ethanoic acid

> <PUBCHEM_IUPAC_TRADITIONAL_NAME>
2-[3-keto-2-[(E)-4-sulfoxypent-2-enyl]cyclopentyl]acetic acid

> <PUBCHEM_IUPAC_INCHI>
InChI=1S/C12H18O7S/c1-8(19-20(16,17)18)3-2-4-10-9(7-12(14)15)5-6-11(10)13/h2-3,8-10H,4-7H2,1H3,(H,14,15)(H,16,17,18)/b3-2+

> <PUBCHEM_IUPAC_INCHIKEY>
XOANNBHPTKIFSM-NSCUHMNNSA-N

> <PUBCHEM_XLOGP3_AA>
-0.1

> <PUBCHEM_EXACT_MASS>
306.07732408

> <PUBCHEM_MOLECULAR_FORMULA>
C12H18O7S

> <PUBCHEM_MOLECULAR_WEIGHT>
306.33

> <PUBCHEM_OPENEYE_CAN_SMILES>
CC(C=CCC1C(CCC1=O)CC(=O)O)OS(=O)(=O)O

> <PUBCHEM_OPENEYE_ISO_SMILES>
CC(/C=C/CC1C(CCC1=O)CC(=O)O)OS(=O)(=O)O

> <PUBCHEM_CACTVS_TPSA>
126

> <PUBCHEM_MONOISOTOPIC_WEIGHT>
306.07732408

> <PUBCHEM_TOTAL_CHARGE>
0

> <PUBCHEM_HEAVY_ATOM_COUNT>
20

> <PUBCHEM_ATOM_DEF_STEREO_COUNT>
0

> <PUBCHEM_ATOM_UDEF_STEREO_COUNT>
3

> <PUBCHEM_BOND_DEF_STEREO_COUNT>
1

> <PUBCHEM_BOND_UDEF_STEREO_COUNT>
0

> <PUBCHEM_ISOTOPIC_ATOM_COUNT>
0

> <PUBCHEM_COMPONENT_COUNT>
1

> <PUBCHEM_CACTVS_TAUTO_COUNT>
-1

> <PUBCHEM_COORDINATE_TYPE>
1
5
255

> <PUBCHEM_BONDANNOTATIONS>
10  14  3
19  20  3
9  15  3

$$$$
