 
  -OEChem-10192104072D

 57 60  0     1  0  0  0  0  0999 V2000
    9.7293    1.7763    0.0000 O   0  0  0  0  0  0  0  0  0  0  0  0
    8.3946   -0.8824    0.0000 O   0  0  0  0  0  0  0  0  0  0  0  0
    5.9670    0.3850    0.0000 O   0  0  0  0  0  0  0  0  0  0  0  0
    6.8671   -1.1393    0.0000 O   0  0  0  0  0  0  0  0  0  0  0  0
   10.4349   -0.1359    0.0000 O   0  0  0  0  0  0  0  0  0  0  0  0
    9.4007   -1.5253    0.0000 O   0  0  0  0  0  0  0  0  0  0  0  0
    5.1350   -1.1393    0.0000 O   0  0  0  0  0  0  0  0  0  0  0  0
    6.0599    3.4495    0.0000 O   0  0  0  0  0  0  0  0  0  0  0  0
    7.7915    3.4095    0.0000 O   0  0  0  0  0  0  0  0  0  0  0  0
    6.8671   -3.1393    0.0000 O   0  0  0  0  0  0  0  0  0  0  0  0
    5.1350   -4.1393    0.0000 O   0  0  0  0  0  0  0  0  0  0  0  0
    3.4030   -3.1393    0.0000 O   0  0  0  0  0  0  0  0  0  0  0  0
    2.5369   -1.6393    0.0000 O   0  0  0  0  0  0  0  0  0  0  0  0
    9.3116    0.8672    0.0000 C   0  0  1  0  0  0  0  0  0  0  0  0
    8.7333    1.6830    0.0000 C   0  0  2  0  0  0  0  0  0  0  0  0
    8.7145    0.0650    0.0000 C   0  0  1  0  0  0  0  0  0  0  0  0
    7.7671    0.3850    0.0000 C   0  0  2  0  0  0  0  0  0  0  0  0
    7.7787    1.3849    0.0000 C   0  0  1  0  0  0  0  0  0  0  0  0
    6.8671   -0.1393    0.0000 C   0  0  1  0  0  0  0  0  0  0  0  0
    9.5167   -0.5321    0.0000 C   0  0  3  0  0  0  0  0  0  0  0  0
    6.8910    1.9299    0.0000 C   0  0  0  0  0  0  0  0  0  0  0  0
    5.9790    1.4266    0.0000 C   0  0  0  0  0  0  0  0  0  0  0  0
    6.9141    2.9296    0.0000 C   0  0  0  0  0  0  0  0  0  0  0  0
    6.0010   -1.6393    0.0000 C   0  0  2  0  0  0  0  0  0  0  0  0
    6.0010   -2.6393    0.0000 C   0  0  1  0  0  0  0  0  0  0  0  0
   11.2371   -0.7330    0.0000 C   0  0  0  0  0  0  0  0  0  0  0  0
    5.1350   -3.1393    0.0000 C   0  0  2  0  0  0  0  0  0  0  0  0
    4.2690   -1.6393    0.0000 C   0  0  1  0  0  0  0  0  0  0  0  0
    4.2690   -2.6393    0.0000 C   0  0  1  0  0  0  0  0  0  0  0  0
    3.4030   -1.1393    0.0000 C   0  0  0  0  0  0  0  0  0  0  0  0
    6.0830    4.4493    0.0000 C   0  0  0  0  0  0  0  0  0  0  0  0
    9.8449    0.5509    0.0000 H   0  0  0  0  0  0  0  0  0  0  0  0
    8.6113    2.2908    0.0000 H   0  0  0  0  0  0  0  0  0  0  0  0
    7.8527   -0.4607    0.0000 H   0  0  0  0  0  0  0  0  0  0  0  0
    7.8838    2.2284    0.0000 H   0  0  0  0  0  0  0  0  0  0  0  0
    7.4046   -0.4482    0.0000 H   0  0  0  0  0  0  0  0  0  0  0  0
    8.9474   -0.7777    0.0000 H   0  0  0  0  0  0  0  0  0  0  0  0
    7.7866   -1.0043    0.0000 H   0  0  0  0  0  0  0  0  0  0  0  0
    5.4470    1.7448    0.0000 H   0  0  0  0  0  0  0  0  0  0  0  0
    9.8980   -1.8955    0.0000 H   0  0  0  0  0  0  0  0  0  0  0  0
    6.0010   -1.0193    0.0000 H   0  0  0  0  0  0  0  0  0  0  0  0
    6.0010   -3.2593    0.0000 H   0  0  0  0  0  0  0  0  0  0  0  0
    4.5981   -3.4493    0.0000 H   0  0  0  0  0  0  0  0  0  0  0  0
   10.8669   -1.2304    0.0000 H   0  0  0  0  0  0  0  0  0  0  0  0
   11.7344   -1.1032    0.0000 H   0  0  0  0  0  0  0  0  0  0  0  0
   11.6073   -0.2357    0.0000 H   0  0  0  0  0  0  0  0  0  0  0  0
    4.2690   -1.0193    0.0000 H   0  0  0  0  0  0  0  0  0  0  0  0
    4.2690   -3.2593    0.0000 H   0  0  0  0  0  0  0  0  0  0  0  0
    3.8015   -0.6643    0.0000 H   0  0  0  0  0  0  0  0  0  0  0  0
    3.0044   -0.6643    0.0000 H   0  0  0  0  0  0  0  0  0  0  0  0
    6.8671   -3.7593    0.0000 H   0  0  0  0  0  0  0  0  0  0  0  0
    6.7028    4.4349    0.0000 H   0  0  0  0  0  0  0  0  0  0  0  0
    6.0973    5.0691    0.0000 H   0  0  0  0  0  0  0  0  0  0  0  0
    5.4632    4.4636    0.0000 H   0  0  0  0  0  0  0  0  0  0  0  0
    4.5981   -4.4493    0.0000 H   0  0  0  0  0  0  0  0  0  0  0  0
    3.4030   -3.7593    0.0000 H   0  0  0  0  0  0  0  0  0  0  0  0
    2.0000   -1.3293    0.0000 H   0  0  0  0  0  0  0  0  0  0  0  0
 14  1  1  6  0  0  0
 15  1  1  6  0  0  0
 16  2  1  6  0  0  0
  2 38  1  0  0  0  0
  3 19  1  0  0  0  0
  3 22  1  0  0  0  0
 19  4  1  6  0  0  0
 24  4  1  1  0  0  0
  5 20  1  0  0  0  0
  5 26  1  0  0  0  0
  6 20  1  0  0  0  0
  6 40  1  0  0  0  0
  7 24  1  0  0  0  0
  7 28  1  0  0  0  0
  8 23  1  0  0  0  0
  8 31  1  0  0  0  0
  9 23  2  0  0  0  0
 25 10  1  6  0  0  0
 10 51  1  0  0  0  0
 27 11  1  1  0  0  0
 11 55  1  0  0  0  0
 29 12  1  6  0  0  0
 12 56  1  0  0  0  0
 13 30  1  0  0  0  0
 13 57  1  0  0  0  0
 14 15  1  0  0  0  0
 14 16  1  0  0  0  0
 14 32  1  0  0  0  0
 15 18  1  0  0  0  0
 15 33  1  0  0  0  0
 16 17  1  0  0  0  0
 16 20  1  0  0  0  0
 17 18  1  0  0  0  0
 17 19  1  0  0  0  0
 17 34  1  6  0  0  0
 18 21  1  0  0  0  0
 18 35  1  6  0  0  0
 19 36  1  0  0  0  0
 20 37  1  0  0  0  0
 21 22  2  0  0  0  0
 21 23  1  0  0  0  0
 22 39  1  0  0  0  0
 24 25  1  0  0  0  0
 24 41  1  0  0  0  0
 25 27  1  0  0  0  0
 25 42  1  0  0  0  0
 26 44  1  0  0  0  0
 26 45  1  0  0  0  0
 26 46  1  0  0  0  0
 27 29  1  0  0  0  0
 27 43  1  0  0  0  0
 28 29  1  0  0  0  0
 28 30  1  1  0  0  0
 28 47  1  0  0  0  0
 29 48  1  0  0  0  0
 30 49  1  0  0  0  0
 30 50  1  0  0  0  0
 31 52  1  0  0  0  0
 31 53  1  0  0  0  0
 31 54  1  0  0  0  0
M  END
> <PUBCHEM_COMPOUND_CID>
23643646

> <PUBCHEM_COMPOUND_CANONICALIZED>
1

> <PUBCHEM_CACTVS_COMPLEXITY>
729

> <PUBCHEM_CACTVS_HBOND_ACCEPTOR>
13

> <PUBCHEM_CACTVS_HBOND_DONOR>
6

> <PUBCHEM_CACTVS_ROTATABLE_BOND>
7

> <PUBCHEM_CACTVS_SUBSKEYS>
AAADceB4PAAAAAAAAAAAAAAAEgAAAYAAAAAkSIAAAAAAAEAAAAAAGgAACAAADVSwgAMCCAAABgCIAgDSCAAACAAgIAAAAAEAAEgRFBIAIQAiQAAFwAAHIIHK7PzOgAAAAAAAAAAAAAAAAAAAAYQADCAAAA==

> <PUBCHEM_IUPAC_OPENEYE_NAME>
methyl (1S,2S,4S,5R,6S,7S)-5-hydroxy-5-[hydroxy(methoxy)methyl]-7-[(2S,3R,4S,5S,6R)-3,4,5-trihydroxy-6-(hydroxymethyl)tetrahydropyran-2-yl]oxy-3,8-dioxatricyclo[4.4.0.02,4]dec-9-ene-10-carboxylate

> <PUBCHEM_IUPAC_CAS_NAME>
(1S,2S,4S,5R,6S,7S)-5-hydroxy-5-[hydroxy(methoxy)methyl]-7-[[(2S,3R,4S,5S,6R)-3,4,5-trihydroxy-6-(hydroxymethyl)-2-oxanyl]oxy]-3,8-dioxatricyclo[4.4.0.02,4]dec-9-ene-10-carboxylic acid methyl ester

> <PUBCHEM_IUPAC_NAME_MARKUP>
methyl (1<I>S</I>,2<I>S</I>,4<I>S</I>,5<I>R</I>,6<I>S</I>,7<I>S</I>)-5-hydroxy-5-[hydroxy(methoxy)methyl]-7-[(2<I>S</I>,3<I>R</I>,4<I>S</I>,5<I>S</I>,6<I>R</I>)-3,4,5-trihydroxy-6-(hydroxymethyl)oxan-2-yl]oxy-3,8-dioxatricyclo[4.4.0.0<SUP>2,4</SUP>]dec-9-ene-10-carboxylate

> <PUBCHEM_IUPAC_NAME>
methyl (1S,2S,4S,5R,6S,7S)-5-hydroxy-5-[hydroxy(methoxy)methyl]-7-[(2S,3R,4S,5S,6R)-3,4,5-trihydroxy-6-(hydroxymethyl)oxan-2-yl]oxy-3,8-dioxatricyclo[4.4.0.02,4]dec-9-ene-10-carboxylate

> <PUBCHEM_IUPAC_SYSTEMATIC_NAME>
methyl (1S,2S,4S,5R,6S,7S)-7-[(2S,3R,4S,5S,6R)-6-(hydroxymethyl)-3,4,5-tris(oxidanyl)oxan-2-yl]oxy-5-[methoxy(oxidanyl)methyl]-5-oxidanyl-3,8-dioxatricyclo[4.4.0.02,4]dec-9-ene-10-carboxylate

> <PUBCHEM_IUPAC_TRADITIONAL_NAME>
(1S,2S,4S,5R,6S,7S)-5-hydroxy-5-[hydroxy(methoxy)methyl]-7-[(2S,3R,4S,5S,6R)-3,4,5-trihydroxy-6-methylol-tetrahydropyran-2-yl]oxy-3,8-dioxatricyclo[4.4.0.02,4]dec-9-ene-10-carboxylic acid methyl ester

> <PUBCHEM_IUPAC_INCHI>
InChI=1S/C18H26O13/c1-26-14(23)5-4-28-15(31-16-11(22)10(21)9(20)6(3-19)29-16)8-7(5)12-13(30-12)18(8,25)17(24)27-2/h4,6-13,15-17,19-22,24-25H,3H2,1-2H3/t6-,7-,8-,9-,10+,11-,12+,13+,15+,16+,17?,18-/m1/s1

> <PUBCHEM_IUPAC_INCHIKEY>
KIWIQSXGLPCSQR-UCEVTUFMSA-N

> <PUBCHEM_XLOGP3_AA>
-3.6

> <PUBCHEM_EXACT_MASS>
450.13734088

> <PUBCHEM_MOLECULAR_FORMULA>
C18H26O13

> <PUBCHEM_MOLECULAR_WEIGHT>
450.4

> <PUBCHEM_OPENEYE_CAN_SMILES>
COC(C1(C2C(C3C1O3)C(=COC2OC4C(C(C(C(O4)CO)O)O)O)C(=O)OC)O)O

> <PUBCHEM_OPENEYE_ISO_SMILES>
COC([C@]1([C@@H]2[C@H]([C@H]3[C@@H]1O3)C(=CO[C@H]2O[C@H]4[C@@H]([C@H]([C@@H]([C@H](O4)CO)O)O)O)C(=O)OC)O)O

> <PUBCHEM_CACTVS_TPSA>
197

> <PUBCHEM_MONOISOTOPIC_WEIGHT>
450.13734088

> <PUBCHEM_TOTAL_CHARGE>
0

> <PUBCHEM_HEAVY_ATOM_COUNT>
31

> <PUBCHEM_ATOM_DEF_STEREO_COUNT>
11

> <PUBCHEM_ATOM_UDEF_STEREO_COUNT>
1

> <PUBCHEM_BOND_DEF_STEREO_COUNT>
0

> <PUBCHEM_BOND_UDEF_STEREO_COUNT>
0

> <PUBCHEM_ISOTOPIC_ATOM_COUNT>
0

> <PUBCHEM_COMPONENT_COUNT>
1

> <PUBCHEM_CACTVS_TAUTO_COUNT>
-1

> <PUBCHEM_COORDINATE_TYPE>
1
5
255

> <PUBCHEM_BONDANNOTATIONS>
14  1  6
15  1  6
25  10  6
27  11  5
29  12  6
17  34  6
18  35  6
16  2  6
28  30  5
19  4  6
24  4  5
20  6  3

$$$$
