 
  -OEChem-10192104352D

 51 50  0     1  0  0  0  0  0999 V2000
    6.0010   -0.3450    0.0000 O   0  0  0  0  0  0  0  0  0  0  0  0
    2.5369    0.6550    0.0000 O   0  0  0  0  0  0  0  0  0  0  0  0
    3.4030    2.1550    0.0000 O   0  0  0  0  0  0  0  0  0  0  0  0
    3.4030   -1.8450    0.0000 O   0  0  0  0  0  0  0  0  0  0  0  0
    2.5369   -0.3450    0.0000 O   0  0  0  0  0  0  0  0  0  0  0  0
    5.1350    1.1550    0.0000 N   0  0  0  0  0  0  0  0  0  0  0  0
   10.3312    1.1550    0.0000 C   0  0  0  0  0  0  0  0  0  0  0  0
   11.1972    0.6550    0.0000 C   0  0  0  0  0  0  0  0  0  0  0  0
    9.4651    0.6550    0.0000 C   0  0  0  0  0  0  0  0  0  0  0  0
   12.0632    1.1550    0.0000 C   0  0  0  0  0  0  0  0  0  0  0  0
    8.5991    1.1550    0.0000 C   0  0  0  0  0  0  0  0  0  0  0  0
   12.9292    0.6550    0.0000 C   0  0  0  0  0  0  0  0  0  0  0  0
    7.7331    0.6550    0.0000 C   0  0  0  0  0  0  0  0  0  0  0  0
   13.7953    1.1550    0.0000 C   0  0  0  0  0  0  0  0  0  0  0  0
    6.8671    1.1550    0.0000 C   0  0  0  0  0  0  0  0  0  0  0  0
   14.6613    0.6550    0.0000 C   0  0  0  0  0  0  0  0  0  0  0  0
    6.0010    0.6550    0.0000 C   0  0  0  0  0  0  0  0  0  0  0  0
   15.5273    1.1550    0.0000 C   0  0  0  0  0  0  0  0  0  0  0  0
    4.2690    0.6550    0.0000 C   0  0  3  0  0  0  0  0  0  0  0  0
    4.2690   -0.3450    0.0000 C   0  0  0  0  0  0  0  0  0  0  0  0
    3.4030    1.1550    0.0000 C   0  0  0  0  0  0  0  0  0  0  0  0
    3.4030   -0.8450    0.0000 C   0  0  0  0  0  0  0  0  0  0  0  0
   10.7297    1.6300    0.0000 H   0  0  0  0  0  0  0  0  0  0  0  0
    9.9326    1.6300    0.0000 H   0  0  0  0  0  0  0  0  0  0  0  0
   10.7987    0.1801    0.0000 H   0  0  0  0  0  0  0  0  0  0  0  0
   11.5957    0.1801    0.0000 H   0  0  0  0  0  0  0  0  0  0  0  0
    9.0666    0.1801    0.0000 H   0  0  0  0  0  0  0  0  0  0  0  0
    9.8637    0.1801    0.0000 H   0  0  0  0  0  0  0  0  0  0  0  0
   12.4617    1.6300    0.0000 H   0  0  0  0  0  0  0  0  0  0  0  0
   11.6647    1.6300    0.0000 H   0  0  0  0  0  0  0  0  0  0  0  0
    8.9976    1.6300    0.0000 H   0  0  0  0  0  0  0  0  0  0  0  0
    8.2006    1.6300    0.0000 H   0  0  0  0  0  0  0  0  0  0  0  0
   12.5307    0.1801    0.0000 H   0  0  0  0  0  0  0  0  0  0  0  0
   13.3278    0.1801    0.0000 H   0  0  0  0  0  0  0  0  0  0  0  0
    7.3346    0.1801    0.0000 H   0  0  0  0  0  0  0  0  0  0  0  0
    8.1316    0.1801    0.0000 H   0  0  0  0  0  0  0  0  0  0  0  0
   14.1938    1.6300    0.0000 H   0  0  0  0  0  0  0  0  0  0  0  0
   13.3967    1.6300    0.0000 H   0  0  0  0  0  0  0  0  0  0  0  0
    7.2656    1.6300    0.0000 H   0  0  0  0  0  0  0  0  0  0  0  0
    6.4685    1.6300    0.0000 H   0  0  0  0  0  0  0  0  0  0  0  0
   14.2628    0.1801    0.0000 H   0  0  0  0  0  0  0  0  0  0  0  0
   15.0598    0.1801    0.0000 H   0  0  0  0  0  0  0  0  0  0  0  0
   15.8373    0.6181    0.0000 H   0  0  0  0  0  0  0  0  0  0  0  0
   16.0643    1.4650    0.0000 H   0  0  0  0  0  0  0  0  0  0  0  0
   15.2173    1.6919    0.0000 H   0  0  0  0  0  0  0  0  0  0  0  0
    4.2690    1.2750    0.0000 H   0  0  0  0  0  0  0  0  0  0  0  0
    5.1350    1.7750    0.0000 H   0  0  0  0  0  0  0  0  0  0  0  0
    4.4810   -0.9276    0.0000 H   0  0  0  0  0  0  0  0  0  0  0  0
    4.8796   -0.2373    0.0000 H   0  0  0  0  0  0  0  0  0  0  0  0
    2.0000    0.9650    0.0000 H   0  0  0  0  0  0  0  0  0  0  0  0
    2.8660   -2.1550    0.0000 H   0  0  0  0  0  0  0  0  0  0  0  0
  1 17  2  0  0  0  0
  2 21  1  0  0  0  0
  2 50  1  0  0  0  0
  3 21  2  0  0  0  0
  4 22  1  0  0  0  0
  4 51  1  0  0  0  0
  5 22  2  0  0  0  0
  6 17  1  0  0  0  0
  6 19  1  0  0  0  0
  6 47  1  0  0  0  0
  7  8  1  0  0  0  0
  7  9  1  0  0  0  0
  7 23  1  0  0  0  0
  7 24  1  0  0  0  0
  8 10  1  0  0  0  0
  8 25  1  0  0  0  0
  8 26  1  0  0  0  0
  9 11  1  0  0  0  0
  9 27  1  0  0  0  0
  9 28  1  0  0  0  0
 10 12  1  0  0  0  0
 10 29  1  0  0  0  0
 10 30  1  0  0  0  0
 11 13  1  0  0  0  0
 11 31  1  0  0  0  0
 11 32  1  0  0  0  0
 12 14  1  0  0  0  0
 12 33  1  0  0  0  0
 12 34  1  0  0  0  0
 13 15  1  0  0  0  0
 13 35  1  0  0  0  0
 13 36  1  0  0  0  0
 14 16  1  0  0  0  0
 14 37  1  0  0  0  0
 14 38  1  0  0  0  0
 15 17  1  0  0  0  0
 15 39  1  0  0  0  0
 15 40  1  0  0  0  0
 16 18  1  0  0  0  0
 16 41  1  0  0  0  0
 16 42  1  0  0  0  0
 18 43  1  0  0  0  0
 18 44  1  0  0  0  0
 18 45  1  0  0  0  0
 19 20  1  0  0  0  0
 19 21  1  0  0  0  0
 19 46  1  0  0  0  0
 20 22  1  0  0  0  0
 20 48  1  0  0  0  0
 20 49  1  0  0  0  0
M  END
> <PUBCHEM_COMPOUND_CID>
539904

> <PUBCHEM_COMPOUND_CANONICALIZED>
1

> <PUBCHEM_CACTVS_COMPLEXITY>
343

> <PUBCHEM_CACTVS_HBOND_ACCEPTOR>
5

> <PUBCHEM_CACTVS_HBOND_DONOR>
3

> <PUBCHEM_CACTVS_ROTATABLE_BOND>
14

> <PUBCHEM_CACTVS_SUBSKEYS>
AAADceB6OAAAAAAAAAAAAAAAAAAAAAAAAAAAAAAAAAAAAAAAAAAAHgAQCAAACCjBgAQCCALAAgAIAAGQGAAAAAAAAAAAAIGIAAACABoAgCAEQAAGFgCQAAFbiICAAAAAAAAAAAAAAAAAAAAAAAAAAAAAAA==

> <PUBCHEM_IUPAC_OPENEYE_NAME>
2-(dodecanoylamino)butanedioic acid

> <PUBCHEM_IUPAC_CAS_NAME>
2-(1-oxododecylamino)butanedioic acid

> <PUBCHEM_IUPAC_NAME_MARKUP>
2-(dodecanoylamino)butanedioic acid

> <PUBCHEM_IUPAC_NAME>
2-(dodecanoylamino)butanedioic acid

> <PUBCHEM_IUPAC_SYSTEMATIC_NAME>
2-(dodecanoylamino)butanedioic acid

> <PUBCHEM_IUPAC_TRADITIONAL_NAME>
2-(lauroylamino)succinic acid

> <PUBCHEM_IUPAC_INCHI>
InChI=1S/C16H29NO5/c1-2-3-4-5-6-7-8-9-10-11-14(18)17-13(16(21)22)12-15(19)20/h13H,2-12H2,1H3,(H,17,18)(H,19,20)(H,21,22)

> <PUBCHEM_IUPAC_INCHIKEY>
VCRXMSMANOGRCM-UHFFFAOYSA-N

> <PUBCHEM_XLOGP3_AA>
3.8

> <PUBCHEM_EXACT_MASS>
315.20457303

> <PUBCHEM_MOLECULAR_FORMULA>
C16H29NO5

> <PUBCHEM_MOLECULAR_WEIGHT>
315.40

> <PUBCHEM_OPENEYE_CAN_SMILES>
CCCCCCCCCCCC(=O)NC(CC(=O)O)C(=O)O

> <PUBCHEM_OPENEYE_ISO_SMILES>
CCCCCCCCCCCC(=O)NC(CC(=O)O)C(=O)O

> <PUBCHEM_CACTVS_TPSA>
104

> <PUBCHEM_MONOISOTOPIC_WEIGHT>
315.20457303

> <PUBCHEM_TOTAL_CHARGE>
0

> <PUBCHEM_HEAVY_ATOM_COUNT>
22

> <PUBCHEM_ATOM_DEF_STEREO_COUNT>
0

> <PUBCHEM_ATOM_UDEF_STEREO_COUNT>
1

> <PUBCHEM_BOND_DEF_STEREO_COUNT>
0

> <PUBCHEM_BOND_UDEF_STEREO_COUNT>
0

> <PUBCHEM_ISOTOPIC_ATOM_COUNT>
0

> <PUBCHEM_COMPONENT_COUNT>
1

> <PUBCHEM_CACTVS_TAUTO_COUNT>
-1

> <PUBCHEM_COORDINATE_TYPE>
1
5
255

> <PUBCHEM_BONDANNOTATIONS>
19  20  3

$$$$
