 
  -OEChem-10192103312D

 63 64  0     1  0  0  0  0  0999 V2000
   11.5923    4.6192    0.0000 P   0  0  0  0  0  0  0  0  0  0  0  0
    8.0622    2.5950    0.0000 O   0  0  0  0  0  0  0  0  0  0  0  0
    9.8222    4.6297    0.0000 O   0  0  0  0  0  0  0  0  0  0  0  0
   10.7282    3.0742    0.0000 O   0  0  0  0  0  0  0  0  0  0  0  0
    6.3301    2.5950    0.0000 O   0  0  0  0  0  0  0  0  0  0  0  0
    8.0622    5.5950    0.0000 O   0  0  0  0  0  0  0  0  0  0  0  0
    2.8660   -4.4050    0.0000 O   0  0  0  0  0  0  0  0  0  0  0  0
    2.0000   -2.9050    0.0000 O   0  0  0  0  0  0  0  0  0  0  0  0
    6.3301    4.5950    0.0000 N   0  0  0  0  0  0  0  0  0  0  0  0
    5.4641    4.0950    0.0000 N   0  3  0  0  0  0  0  0  0  0  0  0
    3.7320   -2.9050    0.0000 N   0  0  0  0  0  0  0  0  0  0  0  0
    4.5981    3.5950    0.0000 N   0  5  0  0  0  0  0  0  0  0  0  0
    8.9282    4.0950    0.0000 C   0  0  1  0  0  0  0  0  0  0  0  0
    8.9282    3.0950    0.0000 C   0  0  3  0  0  0  0  0  0  0  0  0
    8.0622    4.5950    0.0000 C   0  0  3  0  0  0  0  0  0  0  0  0
    7.1962    4.0950    0.0000 C   0  0  3  0  0  0  0  0  0  0  0  0
    7.1962    3.0950    0.0000 C   0  0  3  0  0  0  0  0  0  0  0  0
    9.8222    2.5603    0.0000 C   0  0  0  0  0  0  0  0  0  0  0  0
   10.7282    4.1158    0.0000 C   0  0  3  0  0  0  0  0  0  0  0  0
    6.3301    1.5950    0.0000 C   0  0  0  0  0  0  0  0  0  0  0  0
    5.4641    1.0950    0.0000 C   0  0  0  0  0  0  0  0  0  0  0  0
    5.4641    0.0950    0.0000 C   0  0  0  0  0  0  0  0  0  0  0  0
    4.5981   -0.4050    0.0000 C   0  0  0  0  0  0  0  0  0  0  0  0
    4.5981   -1.4050    0.0000 C   0  0  0  0  0  0  0  0  0  0  0  0
    3.7320   -1.9050    0.0000 C   0  0  0  0  0  0  0  0  0  0  0  0
    4.5981   -3.4050    0.0000 C   0  0  0  0  0  0  0  0  0  0  0  0
    2.8660   -3.4050    0.0000 C   0  0  0  0  0  0  0  0  0  0  0  0
    4.5981   -4.4050    0.0000 C   0  0  0  0  0  0  0  0  0  0  0  0
    2.0000   -4.9050    0.0000 C   0  0  0  0  0  0  0  0  0  0  0  0
    2.0000   -5.9050    0.0000 C   0  0  0  0  0  0  0  0  0  0  0  0
    8.9216    4.9450    0.0000 H   0  0  0  0  0  0  0  0  0  0  0  0
    8.9234    2.4750    0.0000 H   0  0  0  0  0  0  0  0  0  0  0  0
    7.5252    4.9050    0.0000 H   0  0  0  0  0  0  0  0  0  0  0  0
    7.1962    4.7150    0.0000 H   0  0  0  0  0  0  0  0  0  0  0  0
    6.6592    3.4050    0.0000 H   0  0  0  0  0  0  0  0  0  0  0  0
    9.4176    2.0906    0.0000 H   0  0  0  0  0  0  0  0  0  0  0  0
   10.2158    2.0813    0.0000 H   0  0  0  0  0  0  0  0  0  0  0  0
   10.7246    4.7358    0.0000 H   0  0  0  0  0  0  0  0  0  0  0  0
    7.5252    5.9050    0.0000 H   0  0  0  0  0  0  0  0  0  0  0  0
    6.5422    1.0124    0.0000 H   0  0  0  0  0  0  0  0  0  0  0  0
    6.9407    1.7027    0.0000 H   0  0  0  0  0  0  0  0  0  0  0  0
    5.2520    1.6776    0.0000 H   0  0  0  0  0  0  0  0  0  0  0  0
    4.8535    0.9873    0.0000 H   0  0  0  0  0  0  0  0  0  0  0  0
    5.6762   -0.4876    0.0000 H   0  0  0  0  0  0  0  0  0  0  0  0
    6.0747    0.2027    0.0000 H   0  0  0  0  0  0  0  0  0  0  0  0
   12.1304    4.3112    0.0000 H   0  0  0  0  0  0  0  0  0  0  0  0
   11.5899    5.2392    0.0000 H   0  0  0  0  0  0  0  0  0  0  0  0
    4.3860    0.1776    0.0000 H   0  0  0  0  0  0  0  0  0  0  0  0
    3.9875   -0.5127    0.0000 H   0  0  0  0  0  0  0  0  0  0  0  0
    4.8101   -1.9876    0.0000 H   0  0  0  0  0  0  0  0  0  0  0  0
    5.2087   -1.2973    0.0000 H   0  0  0  0  0  0  0  0  0  0  0  0
    3.5200   -1.3224    0.0000 H   0  0  0  0  0  0  0  0  0  0  0  0
    3.1215   -2.0127    0.0000 H   0  0  0  0  0  0  0  0  0  0  0  0
    5.2087   -3.5127    0.0000 H   0  0  0  0  0  0  0  0  0  0  0  0
    4.8101   -2.8224    0.0000 H   0  0  0  0  0  0  0  0  0  0  0  0
    3.9781   -4.4050    0.0000 H   0  0  0  0  0  0  0  0  0  0  0  0
    4.5981   -5.0250    0.0000 H   0  0  0  0  0  0  0  0  0  0  0  0
    5.2181   -4.4050    0.0000 H   0  0  0  0  0  0  0  0  0  0  0  0
    1.7880   -4.3224    0.0000 H   0  0  0  0  0  0  0  0  0  0  0  0
    1.3894   -5.0127    0.0000 H   0  0  0  0  0  0  0  0  0  0  0  0
    1.3800   -5.9050    0.0000 H   0  0  0  0  0  0  0  0  0  0  0  0
    2.0000   -6.5250    0.0000 H   0  0  0  0  0  0  0  0  0  0  0  0
    2.6200   -5.9050    0.0000 H   0  0  0  0  0  0  0  0  0  0  0  0
  1 19  1  0  0  0  0
  1 46  1  0  0  0  0
  1 47  1  0  0  0  0
  2 14  1  0  0  0  0
  2 17  1  0  0  0  0
  3 13  1  0  0  0  0
  3 19  1  0  0  0  0
  4 18  1  0  0  0  0
  4 19  1  0  0  0  0
  5 17  1  0  0  0  0
  5 20  1  0  0  0  0
  6 15  1  0  0  0  0
  6 39  1  0  0  0  0
  7 27  1  0  0  0  0
  7 29  1  0  0  0  0
  8 27  2  0  0  0  0
  9 10  2  0  0  0  0
  9 16  1  0  0  0  0
 10 12  2  0  0  0  0
 11 25  1  0  0  0  0
 11 26  1  0  0  0  0
 11 27  1  0  0  0  0
 13 14  1  0  0  0  0
 13 15  1  0  0  0  0
 13 31  1  6  0  0  0
 14 18  1  0  0  0  0
 14 32  1  0  0  0  0
 15 16  1  0  0  0  0
 15 33  1  0  0  0  0
 16 17  1  0  0  0  0
 16 34  1  0  0  0  0
 17 35  1  0  0  0  0
 18 36  1  0  0  0  0
 18 37  1  0  0  0  0
 19 38  1  0  0  0  0
 20 21  1  0  0  0  0
 20 40  1  0  0  0  0
 20 41  1  0  0  0  0
 21 22  1  0  0  0  0
 21 42  1  0  0  0  0
 21 43  1  0  0  0  0
 22 23  1  0  0  0  0
 22 44  1  0  0  0  0
 22 45  1  0  0  0  0
 23 24  1  0  0  0  0
 23 48  1  0  0  0  0
 23 49  1  0  0  0  0
 24 25  1  0  0  0  0
 24 50  1  0  0  0  0
 24 51  1  0  0  0  0
 25 52  1  0  0  0  0
 25 53  1  0  0  0  0
 26 28  1  0  0  0  0
 26 54  1  0  0  0  0
 26 55  1  0  0  0  0
 28 56  1  0  0  0  0
 28 57  1  0  0  0  0
 28 58  1  0  0  0  0
 29 30  1  0  0  0  0
 29 59  1  0  0  0  0
 29 60  1  0  0  0  0
 30 61  1  0  0  0  0
 30 62  1  0  0  0  0
 30 63  1  0  0  0  0
M  CHG  2  10   1  12  -1
M  END
> <PUBCHEM_COMPOUND_CID>
117805398

> <PUBCHEM_COMPOUND_CANONICALIZED>
1

> <PUBCHEM_CACTVS_COMPLEXITY>
581

> <PUBCHEM_CACTVS_HBOND_ACCEPTOR>
9

> <PUBCHEM_CACTVS_HBOND_DONOR>
1

> <PUBCHEM_CACTVS_ROTATABLE_BOND>
12

> <PUBCHEM_CACTVS_SUBSKEYS>
AAADcfB7uAIAAAAAAAAAAAAAAAAAAAAAAAAkSAAAAAAAAACQAAAAHggICAAQCDzxgAcCCAMABgAKAAAAGAAAAAAAAAAAAAAIAAATEAIAgAAvQAAHBgCHAAHwcA0AAAAAAAAAAAAAAAAAAAAAAAAAAAAAAA==

> <PUBCHEM_IUPAC_OPENEYE_NAME>
ethyl N-[6-[[(8aR)-7-azido-8-hydroxy-2-phosphanyl-4,4a,6,7,8,8a-hexahydropyrano[3,2-d][1,3]dioxin-6-yl]oxy]hexyl]-N-ethyl-carbamate

> <PUBCHEM_IUPAC_CAS_NAME>
N-[6-[[(8aR)-7-azido-8-hydroxy-2-phosphino-4,4a,6,7,8,8a-hexahydropyrano[3,2-d][1,3]dioxin-6-yl]oxy]hexyl]-N-ethylcarbamic acid ethyl ester

> <PUBCHEM_IUPAC_NAME_MARKUP>
ethyl <I>N</I>-[6-[[(8<I>a</I><I>R</I>)-7-azido-8-hydroxy-2-phosphanyl-4,4<I>a</I>,6,7,8,8<I>a</I>-hexahydropyrano[3,2-d][1,3]dioxin-6-yl]oxy]hexyl]-<I>N</I>-ethylcarbamate

> <PUBCHEM_IUPAC_NAME>
ethyl N-[6-[[(8aR)-7-azido-8-hydroxy-2-phosphanyl-4,4a,6,7,8,8a-hexahydropyrano[3,2-d][1,3]dioxin-6-yl]oxy]hexyl]-N-ethylcarbamate

> <PUBCHEM_IUPAC_SYSTEMATIC_NAME>
ethyl N-[6-[[(8aR)-7-azido-8-oxidanyl-2-phosphanyl-4,4a,6,7,8,8a-hexahydropyrano[3,2-d][1,3]dioxin-6-yl]oxy]hexyl]-N-ethyl-carbamate

> <PUBCHEM_IUPAC_TRADITIONAL_NAME>
N-[6-[[(8aR)-7-azido-8-hydroxy-2-phosphino-4,4a,6,7,8,8a-hexahydropyrano[3,2-d][1,3]dioxin-6-yl]oxy]hexyl]-N-ethyl-carbamic acid ethyl ester

> <PUBCHEM_IUPAC_INCHI>
InChI=1S/C18H33N4O7P/c1-3-22(17(24)25-4-2)9-7-5-6-8-10-26-16-13(20-21-19)14(23)15-12(28-16)11-27-18(30)29-15/h12-16,18,23H,3-11,30H2,1-2H3/t12?,13?,14?,15-,16?,18?/m0/s1

> <PUBCHEM_IUPAC_INCHIKEY>
CMCKRIBZEZQRBV-AHJVLEHPSA-N

> <PUBCHEM_XLOGP3_AA>
1.8

> <PUBCHEM_EXACT_MASS>
448.20868640

> <PUBCHEM_MOLECULAR_FORMULA>
C18H33N4O7P

> <PUBCHEM_MOLECULAR_WEIGHT>
448.5

> <PUBCHEM_OPENEYE_CAN_SMILES>
CCN(CCCCCCOC1C(C(C2C(O1)COC(O2)P)O)N=[N+]=[N-])C(=O)OCC

> <PUBCHEM_OPENEYE_ISO_SMILES>
CCN(CCCCCCOC1C(C([C@@H]2C(O1)COC(O2)P)O)N=[N+]=[N-])C(=O)OCC

> <PUBCHEM_CACTVS_TPSA>
101

> <PUBCHEM_MONOISOTOPIC_WEIGHT>
448.20868640

> <PUBCHEM_TOTAL_CHARGE>
0

> <PUBCHEM_HEAVY_ATOM_COUNT>
30

> <PUBCHEM_ATOM_DEF_STEREO_COUNT>
1

> <PUBCHEM_ATOM_UDEF_STEREO_COUNT>
5

> <PUBCHEM_BOND_DEF_STEREO_COUNT>
0

> <PUBCHEM_BOND_UDEF_STEREO_COUNT>
0

> <PUBCHEM_ISOTOPIC_ATOM_COUNT>
0

> <PUBCHEM_COMPONENT_COUNT>
1

> <PUBCHEM_CACTVS_TAUTO_COUNT>
-1

> <PUBCHEM_COORDINATE_TYPE>
1
5
255

> <PUBCHEM_BONDANNOTATIONS>
19  1  3
13  31  6
14  18  3
17  5  3
15  6  3
16  9  3

$$$$
