 
  -OEChem-10192104152D

 54 56  0     1  0  0  0  0  0999 V2000
    8.5991    0.1550    0.0000 O   0  0  0  0  0  0  0  0  0  0  0  0
    6.0010   -0.3450    0.0000 O   0  0  0  0  0  0  0  0  0  0  0  0
    5.1350    1.1550    0.0000 O   0  0  0  0  0  0  0  0  0  0  0  0
    6.8671   -1.8450    0.0000 O   0  0  0  0  0  0  0  0  0  0  0  0
    8.5991   -2.8450    0.0000 O   0  0  0  0  0  0  0  0  0  0  0  0
   10.3312    0.1550    0.0000 O   0  0  0  0  0  0  0  0  0  0  0  0
   10.3312   -1.8450    0.0000 O   0  0  0  0  0  0  0  0  0  0  0  0
    4.2690   -1.3450    0.0000 O   0  0  0  0  0  0  0  0  0  0  0  0
    2.5369   -0.3450    0.0000 O   0  0  0  0  0  0  0  0  0  0  0  0
    2.5369    1.6550    0.0000 O   0  0  0  0  0  0  0  0  0  0  0  0
   12.9292    1.6550    0.0000 O   0  0  0  0  0  0  0  0  0  0  0  0
   12.0632    0.1550    0.0000 O   0  0  0  0  0  0  0  0  0  0  0  0
    7.7331   -0.3450    0.0000 C   0  0  1  0  0  0  0  0  0  0  0  0
    7.7331   -1.3450    0.0000 C   0  0  2  0  0  0  0  0  0  0  0  0
    8.5991   -1.8450    0.0000 C   0  0  1  0  0  0  0  0  0  0  0  0
    9.4651   -1.3450    0.0000 C   0  0  2  0  0  0  0  0  0  0  0  0
    9.4651   -0.3450    0.0000 C   0  0  1  0  0  0  0  0  0  0  0  0
    6.8671    0.1550    0.0000 C   0  0  0  0  0  0  0  0  0  0  0  0
    5.1350    0.1550    0.0000 C   0  0  2  0  0  0  0  0  0  0  0  0
    4.2690   -0.3450    0.0000 C   0  0  1  0  0  0  0  0  0  0  0  0
    3.4030    0.1550    0.0000 C   0  0  2  0  0  0  0  0  0  0  0  0
    3.4030    1.1550    0.0000 C   0  0  1  0  0  0  0  0  0  0  0  0
    4.2690    1.6550    0.0000 C   0  0  0  0  0  0  0  0  0  0  0  0
   10.3312    1.1550    0.0000 C   0  0  0  0  0  0  0  0  0  0  0  0
   11.1972    1.6550    0.0000 C   0  0  0  0  0  0  0  0  0  0  0  0
    9.4651    1.6550    0.0000 C   0  0  0  0  0  0  0  0  0  0  0  0
   11.1972    2.6550    0.0000 C   0  0  0  0  0  0  0  0  0  0  0  0
    9.4651    2.6550    0.0000 C   0  0  0  0  0  0  0  0  0  0  0  0
   10.3312    3.1550    0.0000 C   0  0  0  0  0  0  0  0  0  0  0  0
   12.0632    1.1550    0.0000 C   0  0  0  0  0  0  0  0  0  0  0  0
    7.7331    0.2750    0.0000 H   0  0  0  0  0  0  0  0  0  0  0  0
    7.7331   -1.9650    0.0000 H   0  0  0  0  0  0  0  0  0  0  0  0
    9.1360   -2.1550    0.0000 H   0  0  0  0  0  0  0  0  0  0  0  0
    9.4651   -1.9650    0.0000 H   0  0  0  0  0  0  0  0  0  0  0  0
   10.0021   -0.6550    0.0000 H   0  0  0  0  0  0  0  0  0  0  0  0
    7.2656    0.6299    0.0000 H   0  0  0  0  0  0  0  0  0  0  0  0
    6.4685    0.6299    0.0000 H   0  0  0  0  0  0  0  0  0  0  0  0
    5.1350   -0.4650    0.0000 H   0  0  0  0  0  0  0  0  0  0  0  0
    3.7320   -0.6550    0.0000 H   0  0  0  0  0  0  0  0  0  0  0  0
    2.8660    0.4650    0.0000 H   0  0  0  0  0  0  0  0  0  0  0  0
    3.4030    1.7750    0.0000 H   0  0  0  0  0  0  0  0  0  0  0  0
    4.6675    2.1300    0.0000 H   0  0  0  0  0  0  0  0  0  0  0  0
    3.8705    2.1300    0.0000 H   0  0  0  0  0  0  0  0  0  0  0  0
    6.8671   -2.4650    0.0000 H   0  0  0  0  0  0  0  0  0  0  0  0
    8.0622   -3.1550    0.0000 H   0  0  0  0  0  0  0  0  0  0  0  0
   10.3312   -2.4650    0.0000 H   0  0  0  0  0  0  0  0  0  0  0  0
    3.7320   -1.6550    0.0000 H   0  0  0  0  0  0  0  0  0  0  0  0
    2.0000   -0.0350    0.0000 H   0  0  0  0  0  0  0  0  0  0  0  0
    2.5369    2.2750    0.0000 H   0  0  0  0  0  0  0  0  0  0  0  0
    8.9282    1.3450    0.0000 H   0  0  0  0  0  0  0  0  0  0  0  0
   11.7341    2.9650    0.0000 H   0  0  0  0  0  0  0  0  0  0  0  0
    8.9282    2.9650    0.0000 H   0  0  0  0  0  0  0  0  0  0  0  0
   10.3312    3.7750    0.0000 H   0  0  0  0  0  0  0  0  0  0  0  0
   13.4662    1.3450    0.0000 H   0  0  0  0  0  0  0  0  0  0  0  0
  1 13  1  0  0  0  0
  1 17  1  0  0  0  0
  2 18  1  0  0  0  0
 19  2  1  1  0  0  0
  3 19  1  0  0  0  0
  3 23  1  0  0  0  0
 14  4  1  6  0  0  0
  4 44  1  0  0  0  0
 15  5  1  1  0  0  0
  5 45  1  0  0  0  0
 17  6  1  1  0  0  0
  6 24  1  0  0  0  0
 16  7  1  6  0  0  0
  7 46  1  0  0  0  0
 20  8  1  6  0  0  0
  8 47  1  0  0  0  0
 21  9  1  1  0  0  0
  9 48  1  0  0  0  0
 22 10  1  6  0  0  0
 10 49  1  0  0  0  0
 11 30  1  0  0  0  0
 11 54  1  0  0  0  0
 12 30  2  0  0  0  0
 13 14  1  0  0  0  0
 13 18  1  1  0  0  0
 13 31  1  0  0  0  0
 14 15  1  0  0  0  0
 14 32  1  0  0  0  0
 15 16  1  0  0  0  0
 15 33  1  0  0  0  0
 16 17  1  0  0  0  0
 16 34  1  0  0  0  0
 17 35  1  0  0  0  0
 18 36  1  0  0  0  0
 18 37  1  0  0  0  0
 19 20  1  0  0  0  0
 19 38  1  0  0  0  0
 20 21  1  0  0  0  0
 20 39  1  0  0  0  0
 21 22  1  0  0  0  0
 21 40  1  0  0  0  0
 22 23  1  0  0  0  0
 22 41  1  0  0  0  0
 23 42  1  0  0  0  0
 23 43  1  0  0  0  0
 24 25  1  0  0  0  0
 24 26  2  0  0  0  0
 25 27  2  0  0  0  0
 25 30  1  0  0  0  0
 26 28  1  0  0  0  0
 26 50  1  0  0  0  0
 27 29  1  0  0  0  0
 27 51  1  0  0  0  0
 28 29  2  0  0  0  0
 28 52  1  0  0  0  0
 29 53  1  0  0  0  0
M  END
> <PUBCHEM_COMPOUND_CID>
101093960

> <PUBCHEM_COMPOUND_CANONICALIZED>
1

> <PUBCHEM_CACTVS_COMPLEXITY>
575

> <PUBCHEM_CACTVS_HBOND_ACCEPTOR>
12

> <PUBCHEM_CACTVS_HBOND_DONOR>
7

> <PUBCHEM_CACTVS_ROTATABLE_BOND>
6

> <PUBCHEM_CACTVS_SUBSKEYS>
AAADceB4PAAAAAAAAAAAAAAAAAAAAAAAAAA0SIAAAAAAAAABAAAAGgAACAAADBSwmAMwDoAABgCIAiDSCAACCAAkIAAIiAEGCMgdNzaENRqieWCl4BEPuYfI6CyOAAAAAAAIAAAAAAAAABAAAAAAAAAAAA==

> <PUBCHEM_IUPAC_OPENEYE_NAME>
2-[(2S,3R,4S,5S,6R)-3,4,5-trihydroxy-6-[[(2S,3R,4S,5R)-3,4,5-trihydroxytetrahydropyran-2-yl]oxymethyl]tetrahydropyran-2-yl]oxybenzoic acid

> <PUBCHEM_IUPAC_CAS_NAME>
2-[[(2S,3R,4S,5S,6R)-3,4,5-trihydroxy-6-[[(2S,3R,4S,5R)-3,4,5-trihydroxy-2-oxanyl]oxymethyl]-2-oxanyl]oxy]benzoic acid

> <PUBCHEM_IUPAC_NAME_MARKUP>
2-[(2<I>S</I>,3<I>R</I>,4<I>S</I>,5<I>S</I>,6<I>R</I>)-3,4,5-trihydroxy-6-[[(2<I>S</I>,3<I>R</I>,4<I>S</I>,5<I>R</I>)-3,4,5-trihydroxyoxan-2-yl]oxymethyl]oxan-2-yl]oxybenzoic acid

> <PUBCHEM_IUPAC_NAME>
2-[(2S,3R,4S,5S,6R)-3,4,5-trihydroxy-6-[[(2S,3R,4S,5R)-3,4,5-trihydroxyoxan-2-yl]oxymethyl]oxan-2-yl]oxybenzoic acid

> <PUBCHEM_IUPAC_SYSTEMATIC_NAME>
2-[(2S,3R,4S,5S,6R)-3,4,5-tris(oxidanyl)-6-[[(2S,3R,4S,5R)-3,4,5-tris(oxidanyl)oxan-2-yl]oxymethyl]oxan-2-yl]oxybenzoic acid

> <PUBCHEM_IUPAC_TRADITIONAL_NAME>
2-[(2S,3R,4S,5S,6R)-3,4,5-trihydroxy-6-[[(2S,3R,4S,5R)-3,4,5-trihydroxytetrahydropyran-2-yl]oxymethyl]tetrahydropyran-2-yl]oxybenzoic acid

> <PUBCHEM_IUPAC_INCHI>
InChI=1S/C18H24O12/c19-8-5-27-17(14(23)11(8)20)28-6-10-12(21)13(22)15(24)18(30-10)29-9-4-2-1-3-7(9)16(25)26/h1-4,8,10-15,17-24H,5-6H2,(H,25,26)/t8-,10-,11+,12-,13+,14-,15-,17+,18-/m1/s1

> <PUBCHEM_IUPAC_INCHIKEY>
NDSAZWNOFVLJMY-NJFGGZIOSA-N

> <PUBCHEM_XLOGP3_AA>
-2.8

> <PUBCHEM_EXACT_MASS>
432.12677620

> <PUBCHEM_MOLECULAR_FORMULA>
C18H24O12

> <PUBCHEM_MOLECULAR_WEIGHT>
432.4

> <PUBCHEM_OPENEYE_CAN_SMILES>
C1C(C(C(C(O1)OCC2C(C(C(C(O2)OC3=CC=CC=C3C(=O)O)O)O)O)O)O)O

> <PUBCHEM_OPENEYE_ISO_SMILES>
C1[C@H]([C@@H]([C@H]([C@@H](O1)OC[C@@H]2[C@H]([C@@H]([C@H]([C@@H](O2)OC3=CC=CC=C3C(=O)O)O)O)O)O)O)O

> <PUBCHEM_CACTVS_TPSA>
196

> <PUBCHEM_MONOISOTOPIC_WEIGHT>
432.12677620

> <PUBCHEM_TOTAL_CHARGE>
0

> <PUBCHEM_HEAVY_ATOM_COUNT>
30

> <PUBCHEM_ATOM_DEF_STEREO_COUNT>
9

> <PUBCHEM_ATOM_UDEF_STEREO_COUNT>
0

> <PUBCHEM_BOND_DEF_STEREO_COUNT>
0

> <PUBCHEM_BOND_UDEF_STEREO_COUNT>
0

> <PUBCHEM_ISOTOPIC_ATOM_COUNT>
0

> <PUBCHEM_COMPONENT_COUNT>
1

> <PUBCHEM_CACTVS_TAUTO_COUNT>
-1

> <PUBCHEM_COORDINATE_TYPE>
1
5
255

> <PUBCHEM_BONDANNOTATIONS>
22  10  6
13  18  5
19  2  5
24  25  8
24  26  8
25  27  8
26  28  8
27  29  8
28  29  8
14  4  6
15  5  5
17  6  5
16  7  6
20  8  6
21  9  5

$$$$
