 
  -OEChem-10192104232D

 84 88  0     1  0  0  0  0  0999 V2000
    5.4641   -2.6550    0.0000 O   0  0  0  0  0  0  0  0  0  0  0  0
    8.0622   -0.1550    0.0000 O   0  0  0  0  0  0  0  0  0  0  0  0
    7.1962   -2.6550    0.0000 O   0  0  0  0  0  0  0  0  0  0  0  0
    7.1962   -4.6550    0.0000 O   0  0  0  0  0  0  0  0  0  0  0  0
    8.9282   -2.6550    0.0000 O   0  0  0  0  0  0  0  0  0  0  0  0
    5.4641   -5.6550    0.0000 O   0  0  0  0  0  0  0  0  0  0  0  0
    3.7320   -4.6550    0.0000 O   0  0  0  0  0  0  0  0  0  0  0  0
   10.6603   -1.6550    0.0000 O   0  0  0  0  0  0  0  0  0  0  0  0
    8.9282    1.3450    0.0000 O   0  0  0  0  0  0  0  0  0  0  0  0
   10.6603    0.3450    0.0000 O   0  0  0  0  0  0  0  0  0  0  0  0
    3.7320   -1.6550    0.0000 O   0  0  0  0  0  0  0  0  0  0  0  0
    7.1962    3.3450    0.0000 O   0  0  0  0  0  0  0  0  0  0  0  0
    6.3301   -6.1550    0.0000 O   0  0  0  0  0  0  0  0  0  0  0  0
    7.1962    0.3450    0.0000 O   0  0  0  0  0  0  0  0  0  0  0  0
    2.0000   -1.6550    0.0000 O   0  0  0  0  0  0  0  0  0  0  0  0
    5.4478    0.3104    0.0000 O   0  0  0  0  0  0  0  0  0  0  0  0
    3.6660    3.3692    0.0000 O   0  0  0  0  0  0  0  0  0  0  0  0
    9.7942    5.8450    0.0000 O   0  0  0  0  0  0  0  0  0  0  0  0
   11.5263    4.8450    0.0000 O   0  0  0  0  0  0  0  0  0  0  0  0
    8.0622   -1.1550    0.0000 C   0  0  1  0  0  0  0  0  0  0  0  0
    6.3301   -4.1550    0.0000 C   0  0  2  0  0  0  0  0  0  0  0  0
    8.9282   -1.6550    0.0000 C   0  0  2  0  0  0  0  0  0  0  0  0
    5.4641   -4.6550    0.0000 C   0  0  2  0  0  0  0  0  0  0  0  0
    6.3301   -3.1550    0.0000 C   0  0  1  0  0  0  0  0  0  0  0  0
    4.5981   -4.1550    0.0000 C   0  0  1  0  0  0  0  0  0  0  0  0
    9.7942   -1.1550    0.0000 C   0  0  1  0  0  0  0  0  0  0  0  0
    4.5981   -3.1550    0.0000 C   0  0  1  0  0  0  0  0  0  0  0  0
    9.7942   -0.1550    0.0000 C   0  0  2  0  0  0  0  0  0  0  0  0
    7.1962   -1.6550    0.0000 C   0  0  0  0  0  0  0  0  0  0  0  0
    8.9282    0.3450    0.0000 C   0  0  1  0  0  0  0  0  0  0  0  0
    3.7320   -2.6550    0.0000 C   0  0  0  0  0  0  0  0  0  0  0  0
    8.0622    1.8450    0.0000 C   0  0  0  0  0  0  0  0  0  0  0  0
    7.1962   -5.6550    0.0000 C   0  0  0  0  0  0  0  0  0  0  0  0
    8.0622    2.8450    0.0000 C   0  0  0  0  0  0  0  0  0  0  0  0
    7.1962    1.3450    0.0000 C   0  0  0  0  0  0  0  0  0  0  0  0
    8.0622   -6.1550    0.0000 C   0  0  0  0  0  0  0  0  0  0  0  0
    2.8660   -1.1550    0.0000 C   0  0  0  0  0  0  0  0  0  0  0  0
    6.3301    1.8450    0.0000 C   0  0  0  0  0  0  0  0  0  0  0  0
    8.9282    3.3450    0.0000 C   0  0  0  0  0  0  0  0  0  0  0  0
    6.3301    2.8450    0.0000 C   0  0  0  0  0  0  0  0  0  0  0  0
    2.8660   -0.1550    0.0000 C   0  0  0  0  0  0  0  0  0  0  0  0
    5.4362    1.3103    0.0000 C   0  0  0  0  0  0  0  0  0  0  0  0
    5.4362    3.3797    0.0000 C   0  0  0  0  0  0  0  0  0  0  0  0
    8.9282    4.3450    0.0000 C   0  0  0  0  0  0  0  0  0  0  0  0
    9.7942    2.8450    0.0000 C   0  0  0  0  0  0  0  0  0  0  0  0
    4.5301    1.8242    0.0000 C   0  0  0  0  0  0  0  0  0  0  0  0
    4.5301    2.8658    0.0000 C   0  0  0  0  0  0  0  0  0  0  0  0
    9.7942    4.8450    0.0000 C   0  0  0  0  0  0  0  0  0  0  0  0
   10.6603    3.3450    0.0000 C   0  0  0  0  0  0  0  0  0  0  0  0
   10.6603    4.3450    0.0000 C   0  0  0  0  0  0  0  0  0  0  0  0
    7.5252   -0.8450    0.0000 H   0  0  0  0  0  0  0  0  0  0  0  0
    6.3301   -4.7750    0.0000 H   0  0  0  0  0  0  0  0  0  0  0  0
    9.4651   -1.9650    0.0000 H   0  0  0  0  0  0  0  0  0  0  0  0
    4.9272   -4.9650    0.0000 H   0  0  0  0  0  0  0  0  0  0  0  0
    6.3301   -2.5350    0.0000 H   0  0  0  0  0  0  0  0  0  0  0  0
    4.5981   -4.7750    0.0000 H   0  0  0  0  0  0  0  0  0  0  0  0
   10.3312   -0.8450    0.0000 H   0  0  0  0  0  0  0  0  0  0  0  0
    4.5981   -2.5350    0.0000 H   0  0  0  0  0  0  0  0  0  0  0  0
   10.3312   -0.4650    0.0000 H   0  0  0  0  0  0  0  0  0  0  0  0
    6.9841   -1.0724    0.0000 H   0  0  0  0  0  0  0  0  0  0  0  0
    6.5856   -1.7627    0.0000 H   0  0  0  0  0  0  0  0  0  0  0  0
    9.4651    0.6550    0.0000 H   0  0  0  0  0  0  0  0  0  0  0  0
    3.1215   -2.5473    0.0000 H   0  0  0  0  0  0  0  0  0  0  0  0
    3.5200   -3.2376    0.0000 H   0  0  0  0  0  0  0  0  0  0  0  0
    9.4651   -2.9650    0.0000 H   0  0  0  0  0  0  0  0  0  0  0  0
    4.9272   -5.9650    0.0000 H   0  0  0  0  0  0  0  0  0  0  0  0
    3.1951   -4.3450    0.0000 H   0  0  0  0  0  0  0  0  0  0  0  0
   11.1972   -1.3450    0.0000 H   0  0  0  0  0  0  0  0  0  0  0  0
   10.6603    0.9650    0.0000 H   0  0  0  0  0  0  0  0  0  0  0  0
    7.7522   -6.6919    0.0000 H   0  0  0  0  0  0  0  0  0  0  0  0
    8.5991   -6.4650    0.0000 H   0  0  0  0  0  0  0  0  0  0  0  0
    8.3722   -5.6181    0.0000 H   0  0  0  0  0  0  0  0  0  0  0  0
    3.4860   -0.1550    0.0000 H   0  0  0  0  0  0  0  0  0  0  0  0
    2.8660    0.4650    0.0000 H   0  0  0  0  0  0  0  0  0  0  0  0
    2.2460   -0.1550    0.0000 H   0  0  0  0  0  0  0  0  0  0  0  0
    5.4434    3.9996    0.0000 H   0  0  0  0  0  0  0  0  0  0  0  0
    8.3913    4.6550    0.0000 H   0  0  0  0  0  0  0  0  0  0  0  0
    9.7942    2.2250    0.0000 H   0  0  0  0  0  0  0  0  0  0  0  0
    3.9944    1.5121    0.0000 H   0  0  0  0  0  0  0  0  0  0  0  0
   11.1972    3.0350    0.0000 H   0  0  0  0  0  0  0  0  0  0  0  0
    4.9144   -0.0058    0.0000 H   0  0  0  0  0  0  0  0  0  0  0  0
    3.1279    3.0612    0.0000 H   0  0  0  0  0  0  0  0  0  0  0  0
    9.2573    6.1550    0.0000 H   0  0  0  0  0  0  0  0  0  0  0  0
   12.0632    4.5350    0.0000 H   0  0  0  0  0  0  0  0  0  0  0  0
  1 24  1  0  0  0  0
  1 27  1  0  0  0  0
  2 20  1  0  0  0  0
  2 30  1  0  0  0  0
 24  3  1  1  0  0  0
  3 29  1  0  0  0  0
 21  4  1  6  0  0  0
  4 33  1  0  0  0  0
 22  5  1  6  0  0  0
  5 65  1  0  0  0  0
 23  6  1  1  0  0  0
  6 66  1  0  0  0  0
 25  7  1  6  0  0  0
  7 67  1  0  0  0  0
 26  8  1  1  0  0  0
  8 68  1  0  0  0  0
 30  9  1  1  0  0  0
  9 32  1  0  0  0  0
 28 10  1  6  0  0  0
 10 69  1  0  0  0  0
 11 31  1  0  0  0  0
 11 37  1  0  0  0  0
 12 34  1  0  0  0  0
 12 40  1  0  0  0  0
 13 33  2  0  0  0  0
 14 35  2  0  0  0  0
 15 37  2  0  0  0  0
 16 42  1  0  0  0  0
 16 81  1  0  0  0  0
 17 47  1  0  0  0  0
 17 82  1  0  0  0  0
 18 48  1  0  0  0  0
 18 83  1  0  0  0  0
 19 50  1  0  0  0  0
 19 84  1  0  0  0  0
 20 22  1  0  0  0  0
 20 29  1  1  0  0  0
 20 51  1  0  0  0  0
 21 23  1  0  0  0  0
 21 24  1  0  0  0  0
 21 52  1  0  0  0  0
 22 26  1  0  0  0  0
 22 53  1  0  0  0  0
 23 25  1  0  0  0  0
 23 54  1  0  0  0  0
 24 55  1  0  0  0  0
 25 27  1  0  0  0  0
 25 56  1  0  0  0  0
 26 28  1  0  0  0  0
 26 57  1  0  0  0  0
 27 31  1  1  0  0  0
 27 58  1  0  0  0  0
 28 30  1  0  0  0  0
 28 59  1  0  0  0  0
 29 60  1  0  0  0  0
 29 61  1  0  0  0  0
 30 62  1  0  0  0  0
 31 63  1  0  0  0  0
 31 64  1  0  0  0  0
 32 34  2  0  0  0  0
 32 35  1  0  0  0  0
 33 36  1  0  0  0  0
 34 39  1  0  0  0  0
 35 38  1  0  0  0  0
 36 70  1  0  0  0  0
 36 71  1  0  0  0  0
 36 72  1  0  0  0  0
 37 41  1  0  0  0  0
 38 40  1  0  0  0  0
 38 42  2  0  0  0  0
 39 44  2  0  0  0  0
 39 45  1  0  0  0  0
 40 43  2  0  0  0  0
 41 73  1  0  0  0  0
 41 74  1  0  0  0  0
 41 75  1  0  0  0  0
 42 46  1  0  0  0  0
 43 47  1  0  0  0  0
 43 76  1  0  0  0  0
 44 48  1  0  0  0  0
 44 77  1  0  0  0  0
 45 49  2  0  0  0  0
 45 78  1  0  0  0  0
 46 47  2  0  0  0  0
 46 79  1  0  0  0  0
 48 50  2  0  0  0  0
 49 50  1  0  0  0  0
 49 80  1  0  0  0  0
M  END
> <PUBCHEM_COMPOUND_CID>
11650583

> <PUBCHEM_COMPOUND_CANONICALIZED>
1

> <PUBCHEM_CACTVS_COMPLEXITY>
1260

> <PUBCHEM_CACTVS_HBOND_ACCEPTOR>
19

> <PUBCHEM_CACTVS_HBOND_DONOR>
9

> <PUBCHEM_CACTVS_ROTATABLE_BOND>
11

> <PUBCHEM_CACTVS_SUBSKEYS>
AAADcfB4PgAAAAAAAAAAAAAAAAAAAAAAAAA0aIECAAAAAACBQAAAGgAACAAADBSwmAMyDoAABgCIAqDSCAICCAAkIAAIiAFGiMgdNzaGNR6ieWGl4BUPuQfI7LzOIAABCAAIQABAAAIQABCAAAAAAAAAAA==

> <PUBCHEM_IUPAC_OPENEYE_NAME>
[(2R,3S,4S,5R,6R)-5-acetoxy-6-[[(2R,3S,4S,5R,6S)-6-[2-(3,4-dihydroxyphenyl)-5,7-dihydroxy-4-oxo-chromen-3-yl]oxy-3,4,5-trihydroxy-tetrahydropyran-2-yl]methoxy]-3,4-dihydroxy-tetrahydropyran-2-yl]methyl acetate

> <PUBCHEM_IUPAC_CAS_NAME>
acetic acid [(2R,3S,4S,5R,6R)-5-acetyloxy-6-[[(2R,3S,4S,5R,6S)-6-[[2-(3,4-dihydroxyphenyl)-5,7-dihydroxy-4-oxo-1-benzopyran-3-yl]oxy]-3,4,5-trihydroxy-2-oxanyl]methoxy]-3,4-dihydroxy-2-oxanyl]methyl ester

> <PUBCHEM_IUPAC_NAME_MARKUP>
[(2<I>R</I>,3<I>S</I>,4<I>S</I>,5<I>R</I>,6<I>R</I>)-5-acetyloxy-6-[[(2<I>R</I>,3<I>S</I>,4<I>S</I>,5<I>R</I>,6<I>S</I>)-6-[2-(3,4-dihydroxyphenyl)-5,7-dihydroxy-4-oxochromen-3-yl]oxy-3,4,5-trihydroxyoxan-2-yl]methoxy]-3,4-dihydroxyoxan-2-yl]methyl acetate

> <PUBCHEM_IUPAC_NAME>
[(2R,3S,4S,5R,6R)-5-acetyloxy-6-[[(2R,3S,4S,5R,6S)-6-[2-(3,4-dihydroxyphenyl)-5,7-dihydroxy-4-oxochromen-3-yl]oxy-3,4,5-trihydroxyoxan-2-yl]methoxy]-3,4-dihydroxyoxan-2-yl]methyl acetate

> <PUBCHEM_IUPAC_SYSTEMATIC_NAME>
[(2R,3S,4S,5R,6R)-5-acetyloxy-6-[[(2R,3S,4S,5R,6S)-6-[2-[3,4-bis(oxidanyl)phenyl]-5,7-bis(oxidanyl)-4-oxidanylidene-chromen-3-yl]oxy-3,4,5-tris(oxidanyl)oxan-2-yl]methoxy]-3,4-bis(oxidanyl)oxan-2-yl]methyl ethanoate

> <PUBCHEM_IUPAC_TRADITIONAL_NAME>
acetic acid [(2R,3S,4S,5R,6R)-5-acetoxy-6-[[(2R,3S,4S,5R,6S)-6-[2-(3,4-dihydroxyphenyl)-5,7-dihydroxy-4-keto-chromen-3-yl]oxy-3,4,5-trihydroxy-tetrahydropyran-2-yl]methoxy]-3,4-dihydroxy-tetrahydropyran-2-yl]methyl ester

> <PUBCHEM_IUPAC_INCHI>
InChI=1S/C31H34O19/c1-10(32)44-8-18-22(39)25(42)29(46-11(2)33)31(49-18)45-9-19-21(38)24(41)26(43)30(48-19)50-28-23(40)20-16(37)6-13(34)7-17(20)47-27(28)12-3-4-14(35)15(36)5-12/h3-7,18-19,21-22,24-26,29-31,34-39,41-43H,8-9H2,1-2H3/t18-,19-,21-,22-,24+,25+,26-,29-,30+,31-/m1/s1

> <PUBCHEM_IUPAC_INCHIKEY>
DNFFDHHISFLCHK-MNHLIGHISA-N

> <PUBCHEM_XLOGP3_AA>
-1.2

> <PUBCHEM_EXACT_MASS>
710.16942885

> <PUBCHEM_MOLECULAR_FORMULA>
C31H34O19

> <PUBCHEM_MOLECULAR_WEIGHT>
710.6

> <PUBCHEM_OPENEYE_CAN_SMILES>
CC(=O)OCC1C(C(C(C(O1)OCC2C(C(C(C(O2)OC3=C(OC4=CC(=CC(=C4C3=O)O)O)C5=CC(=C(C=C5)O)O)O)O)O)OC(=O)C)O)O

> <PUBCHEM_OPENEYE_ISO_SMILES>
CC(=O)OC[C@@H]1[C@H]([C@@H]([C@H]([C@@H](O1)OC[C@@H]2[C@H]([C@@H]([C@H]([C@@H](O2)OC3=C(OC4=CC(=CC(=C4C3=O)O)O)C5=CC(=C(C=C5)O)O)O)O)O)OC(=O)C)O)O

> <PUBCHEM_CACTVS_TPSA>
298

> <PUBCHEM_MONOISOTOPIC_WEIGHT>
710.16942885

> <PUBCHEM_TOTAL_CHARGE>
0

> <PUBCHEM_HEAVY_ATOM_COUNT>
50

> <PUBCHEM_ATOM_DEF_STEREO_COUNT>
10

> <PUBCHEM_ATOM_UDEF_STEREO_COUNT>
0

> <PUBCHEM_BOND_DEF_STEREO_COUNT>
0

> <PUBCHEM_BOND_UDEF_STEREO_COUNT>
0

> <PUBCHEM_ISOTOPIC_ATOM_COUNT>
0

> <PUBCHEM_COMPONENT_COUNT>
1

> <PUBCHEM_CACTVS_TAUTO_COUNT>
-1

> <PUBCHEM_COORDINATE_TYPE>
1
5
255

> <PUBCHEM_BONDANNOTATIONS>
28  10  6
12  34  8
12  40  8
20  29  5
27  31  5
24  3  5
32  34  8
32  35  8
35  38  8
38  40  8
38  42  8
39  44  8
39  45  8
21  4  6
40  43  8
42  46  8
43  47  8
44  48  8
45  49  8
46  47  8
48  50  8
49  50  8
22  5  6
23  6  5
25  7  6
26  8  5
30  9  5

$$$$
