 
  -OEChem-10192104102D

101105  0     1  0  0  0  0  0999 V2000
    7.1962   -0.7500    0.0000 O   0  0  0  0  0  0  0  0  0  0  0  0
    7.1962    2.2500    0.0000 O   0  0  0  0  0  0  0  0  0  0  0  0
    5.4641   -0.7500    0.0000 O   0  0  0  0  0  0  0  0  0  0  0  0
    5.4641    0.2500    0.0000 O   0  0  0  0  0  0  0  0  0  0  0  0
    8.9282    0.2500    0.0000 O   0  0  0  0  0  0  0  0  0  0  0  0
    7.1962   -2.7500    0.0000 O   0  0  0  0  0  0  0  0  0  0  0  0
    8.9282    2.2500    0.0000 O   0  0  0  0  0  0  0  0  0  0  0  0
    5.4641   -3.7500    0.0000 O   0  0  0  0  0  0  0  0  0  0  0  0
    3.7320   -2.7500    0.0000 O   0  0  0  0  0  0  0  0  0  0  0  0
    3.7320    0.2500    0.0000 O   0  0  0  0  0  0  0  0  0  0  0  0
    9.7942    1.7500    0.0000 O   0  0  0  0  0  0  0  0  0  0  0  0
    6.3301   -4.2500    0.0000 O   0  0  0  0  0  0  0  0  0  0  0  0
    4.5981   -5.2500    0.0000 O   0  0  0  0  0  0  0  0  0  0  0  0
    2.8660   -1.2500    0.0000 O   0  0  0  0  0  0  0  0  0  0  0  0
    8.9282    6.2500    0.0000 O   0  0  0  0  0  0  0  0  0  0  0  0
    9.7942   -5.2500    0.0000 O   0  0  0  0  0  0  0  0  0  0  0  0
    7.1962    0.2500    0.0000 C   0  0  1  0  0  0  0  0  0  0  0  0
    6.3301    0.7500    0.0000 C   0  0  1  0  0  0  0  0  0  0  0  0
    8.0622    0.7500    0.0000 C   0  0  2  0  0  0  0  0  0  0  0  0
    6.3301    1.7500    0.0000 C   0  0  1  0  0  0  0  0  0  0  0  0
    6.3301   -1.2500    0.0000 C   0  0  2  0  0  0  0  0  0  0  0  0
    6.3301   -2.2500    0.0000 C   0  0  1  0  0  0  0  0  0  0  0  0
    8.0622    1.7500    0.0000 C   0  0  2  0  0  0  0  0  0  0  0  0
    5.4641   -2.7500    0.0000 C   0  0  2  0  0  0  0  0  0  0  0  0
    4.5981   -2.2500    0.0000 C   0  0  1  0  0  0  0  0  0  0  0  0
    4.5981   -1.2500    0.0000 C   0  0  0  0  0  0  0  0  0  0  0  0
    5.4641    2.2500    0.0000 C   0  0  0  0  0  0  0  0  0  0  0  0
    4.5981    0.7500    0.0000 C   0  0  0  0  0  0  0  0  0  0  0  0
    9.7942    0.7500    0.0000 C   0  0  0  0  0  0  0  0  0  0  0  0
    8.9282    3.2500    0.0000 C   0  0  0  0  0  0  0  0  0  0  0  0
    7.1962   -3.7500    0.0000 C   0  0  0  0  0  0  0  0  0  0  0  0
    4.5981   -4.2500    0.0000 C   0  0  0  0  0  0  0  0  0  0  0  0
    2.8660   -2.2500    0.0000 C   0  0  0  0  0  0  0  0  0  0  0  0
    8.0622   -4.2500    0.0000 C   0  0  0  0  0  0  0  0  0  0  0  0
    3.9553    1.5160    0.0000 C   0  0  0  0  0  0  0  0  0  0  0  0
   10.6603    0.2500    0.0000 C   0  0  0  0  0  0  0  0  0  0  0  0
    8.0622    3.7500    0.0000 C   0  0  0  0  0  0  0  0  0  0  0  0
    9.7942    3.7500    0.0000 C   0  0  0  0  0  0  0  0  0  0  0  0
    3.7320   -3.7500    0.0000 C   0  0  0  0  0  0  0  0  0  0  0  0
    8.0622   -5.2500    0.0000 C   0  0  0  0  0  0  0  0  0  0  0  0
    2.0000   -2.7500    0.0000 C   0  0  0  0  0  0  0  0  0  0  0  0
    4.2973    2.4557    0.0000 C   0  0  0  0  0  0  0  0  0  0  0  0
    2.9705    1.3424    0.0000 C   0  0  0  0  0  0  0  0  0  0  0  0
    8.0622    4.7500    0.0000 C   0  0  0  0  0  0  0  0  0  0  0  0
    9.7942    4.7500    0.0000 C   0  0  0  0  0  0  0  0  0  0  0  0
   10.6603   -0.7500    0.0000 C   0  0  0  0  0  0  0  0  0  0  0  0
   11.5263    0.7500    0.0000 C   0  0  0  0  0  0  0  0  0  0  0  0
    8.9282    5.2500    0.0000 C   0  0  0  0  0  0  0  0  0  0  0  0
    8.9282   -5.7500    0.0000 C   0  0  0  0  0  0  0  0  0  0  0  0
    3.6545    3.2218    0.0000 C   0  0  0  0  0  0  0  0  0  0  0  0
    2.3277    2.1084    0.0000 C   0  0  0  0  0  0  0  0  0  0  0  0
   11.5263   -1.2500    0.0000 C   0  0  0  0  0  0  0  0  0  0  0  0
   12.3923    0.2500    0.0000 C   0  0  0  0  0  0  0  0  0  0  0  0
    2.6697    3.0481    0.0000 C   0  0  0  0  0  0  0  0  0  0  0  0
   12.3923   -0.7500    0.0000 C   0  0  0  0  0  0  0  0  0  0  0  0
    8.9282   -6.7500    0.0000 C   0  0  0  0  0  0  0  0  0  0  0  0
    9.7942    6.7500    0.0000 C   0  0  0  0  0  0  0  0  0  0  0  0
    6.6592   -0.0600    0.0000 H   0  0  0  0  0  0  0  0  0  0  0  0
    5.7932    1.0600    0.0000 H   0  0  0  0  0  0  0  0  0  0  0  0
    8.0622    0.1300    0.0000 H   0  0  0  0  0  0  0  0  0  0  0  0
    6.3301    2.3700    0.0000 H   0  0  0  0  0  0  0  0  0  0  0  0
    6.8671   -1.5600    0.0000 H   0  0  0  0  0  0  0  0  0  0  0  0
    6.3301   -2.8700    0.0000 H   0  0  0  0  0  0  0  0  0  0  0  0
    8.0622    2.3700    0.0000 H   0  0  0  0  0  0  0  0  0  0  0  0
    4.9272   -3.0600    0.0000 H   0  0  0  0  0  0  0  0  0  0  0  0
    4.0611   -1.9400    0.0000 H   0  0  0  0  0  0  0  0  0  0  0  0
    4.3860   -0.6674    0.0000 H   0  0  0  0  0  0  0  0  0  0  0  0
    3.9875   -1.3577    0.0000 H   0  0  0  0  0  0  0  0  0  0  0  0
    5.7741    2.7869    0.0000 H   0  0  0  0  0  0  0  0  0  0  0  0
    4.9272    2.5600    0.0000 H   0  0  0  0  0  0  0  0  0  0  0  0
    5.1541    1.7131    0.0000 H   0  0  0  0  0  0  0  0  0  0  0  0
    8.6728   -4.3577    0.0000 H   0  0  0  0  0  0  0  0  0  0  0  0
    8.2742   -3.6674    0.0000 H   0  0  0  0  0  0  0  0  0  0  0  0
    7.5252    3.4400    0.0000 H   0  0  0  0  0  0  0  0  0  0  0  0
   10.3312    3.4400    0.0000 H   0  0  0  0  0  0  0  0  0  0  0  0
    4.0420   -3.2131    0.0000 H   0  0  0  0  0  0  0  0  0  0  0  0
    3.1951   -3.4400    0.0000 H   0  0  0  0  0  0  0  0  0  0  0  0
    3.4220   -4.2869    0.0000 H   0  0  0  0  0  0  0  0  0  0  0  0
    7.4516   -5.1423    0.0000 H   0  0  0  0  0  0  0  0  0  0  0  0
    7.8501   -5.8326    0.0000 H   0  0  0  0  0  0  0  0  0  0  0  0
    1.6900   -2.2131    0.0000 H   0  0  0  0  0  0  0  0  0  0  0  0
    1.4631   -3.0600    0.0000 H   0  0  0  0  0  0  0  0  0  0  0  0
    2.3100   -3.2869    0.0000 H   0  0  0  0  0  0  0  0  0  0  0  0
    4.9079    2.5634    0.0000 H   0  0  0  0  0  0  0  0  0  0  0  0
    2.7584    0.7598    0.0000 H   0  0  0  0  0  0  0  0  0  0  0  0
    7.5252    5.0600    0.0000 H   0  0  0  0  0  0  0  0  0  0  0  0
   10.3312    5.0600    0.0000 H   0  0  0  0  0  0  0  0  0  0  0  0
   10.1233   -1.0600    0.0000 H   0  0  0  0  0  0  0  0  0  0  0  0
   11.5263    1.3700    0.0000 H   0  0  0  0  0  0  0  0  0  0  0  0
    3.8666    3.8044    0.0000 H   0  0  0  0  0  0  0  0  0  0  0  0
    1.7171    2.0008    0.0000 H   0  0  0  0  0  0  0  0  0  0  0  0
   11.5263   -1.8700    0.0000 H   0  0  0  0  0  0  0  0  0  0  0  0
   12.9292    0.5600    0.0000 H   0  0  0  0  0  0  0  0  0  0  0  0
    2.2712    3.5231    0.0000 H   0  0  0  0  0  0  0  0  0  0  0  0
   12.9292   -1.0600    0.0000 H   0  0  0  0  0  0  0  0  0  0  0  0
    8.3082   -6.7500    0.0000 H   0  0  0  0  0  0  0  0  0  0  0  0
    8.9282   -7.3700    0.0000 H   0  0  0  0  0  0  0  0  0  0  0  0
    9.5482   -6.7500    0.0000 H   0  0  0  0  0  0  0  0  0  0  0  0
   10.1042    6.2131    0.0000 H   0  0  0  0  0  0  0  0  0  0  0  0
   10.3312    7.0600    0.0000 H   0  0  0  0  0  0  0  0  0  0  0  0
    9.4842    7.2869    0.0000 H   0  0  0  0  0  0  0  0  0  0  0  0
 17  1  1  1  0  0  0
 21  1  1  1  0  0  0
  2 20  1  0  0  0  0
  2 23  1  0  0  0  0
  3 21  1  0  0  0  0
  3 26  1  0  0  0  0
 18  4  1  6  0  0  0
  4 28  1  0  0  0  0
 19  5  1  6  0  0  0
  5 29  1  0  0  0  0
 22  6  1  6  0  0  0
  6 31  1  0  0  0  0
 23  7  1  6  0  0  0
  7 30  1  0  0  0  0
 24  8  1  1  0  0  0
  8 32  1  0  0  0  0
 25  9  1  6  0  0  0
  9 33  1  0  0  0  0
 10 28  2  0  0  0  0
 11 29  2  0  0  0  0
 12 31  2  0  0  0  0
 13 32  2  0  0  0  0
 14 33  2  0  0  0  0
 15 48  1  0  0  0  0
 15 57  1  0  0  0  0
 16 49  2  0  0  0  0
 17 18  1  0  0  0  0
 17 19  1  0  0  0  0
 17 58  1  0  0  0  0
 18 20  1  0  0  0  0
 18 59  1  0  0  0  0
 19 23  1  0  0  0  0
 19 60  1  0  0  0  0
 20 27  1  1  0  0  0
 20 61  1  0  0  0  0
 21 22  1  0  0  0  0
 21 62  1  0  0  0  0
 22 24  1  0  0  0  0
 22 63  1  0  0  0  0
 23 64  1  0  0  0  0
 24 25  1  0  0  0  0
 24 65  1  0  0  0  0
 25 26  1  0  0  0  0
 25 66  1  0  0  0  0
 26 67  1  0  0  0  0
 26 68  1  0  0  0  0
 27 69  1  0  0  0  0
 27 70  1  0  0  0  0
 27 71  1  0  0  0  0
 28 35  1  0  0  0  0
 29 36  1  0  0  0  0
 30 37  2  0  0  0  0
 30 38  1  0  0  0  0
 31 34  1  0  0  0  0
 32 39  1  0  0  0  0
 33 41  1  0  0  0  0
 34 40  1  0  0  0  0
 34 72  1  0  0  0  0
 34 73  1  0  0  0  0
 35 42  2  0  0  0  0
 35 43  1  0  0  0  0
 36 46  2  0  0  0  0
 36 47  1  0  0  0  0
 37 44  1  0  0  0  0
 37 74  1  0  0  0  0
 38 45  2  0  0  0  0
 38 75  1  0  0  0  0
 39 76  1  0  0  0  0
 39 77  1  0  0  0  0
 39 78  1  0  0  0  0
 40 49  1  0  0  0  0
 40 79  1  0  0  0  0
 40 80  1  0  0  0  0
 41 81  1  0  0  0  0
 41 82  1  0  0  0  0
 41 83  1  0  0  0  0
 42 50  1  0  0  0  0
 42 84  1  0  0  0  0
 43 51  2  0  0  0  0
 43 85  1  0  0  0  0
 44 48  2  0  0  0  0
 44 86  1  0  0  0  0
 45 48  1  0  0  0  0
 45 87  1  0  0  0  0
 46 52  1  0  0  0  0
 46 88  1  0  0  0  0
 47 53  2  0  0  0  0
 47 89  1  0  0  0  0
 49 56  1  0  0  0  0
 50 54  2  0  0  0  0
 50 90  1  0  0  0  0
 51 54  1  0  0  0  0
 51 91  1  0  0  0  0
 52 55  2  0  0  0  0
 52 92  1  0  0  0  0
 53 55  1  0  0  0  0
 53 93  1  0  0  0  0
 54 94  1  0  0  0  0
 55 95  1  0  0  0  0
 56 96  1  0  0  0  0
 56 97  1  0  0  0  0
 56 98  1  0  0  0  0
 57 99  1  0  0  0  0
 57100  1  0  0  0  0
 57101  1  0  0  0  0
M  END
> <PUBCHEM_COMPOUND_CID>
72696961

> <PUBCHEM_COMPOUND_CANONICALIZED>
1

> <PUBCHEM_CACTVS_COMPLEXITY>
1370

> <PUBCHEM_CACTVS_HBOND_ACCEPTOR>
16

> <PUBCHEM_CACTVS_HBOND_DONOR>
0

> <PUBCHEM_CACTVS_ROTATABLE_BOND>
20

> <PUBCHEM_CACTVS_SUBSKEYS>
AAADcfB8PgAAAAAAAAAAAAAAAAAAAAAAAAA0aMECAAAAAAABUAAAGgAAAAAADBSwmAMyDoAABACIAqDSCAACCAAkIAAIiAEGCMgdJjKENRqiOSClwBEOqYfL6CyOAQAAAAAAAAACAAAAAAAAAAAAAAAAAA==

> <PUBCHEM_IUPAC_OPENEYE_NAME>
[(2R,3R,4S,5R,6R)-5-benzoyloxy-4-[(2S,3R,4S,5R)-4,5-diacetoxy-3-(4-oxopentanoyloxy)tetrahydropyran-2-yl]oxy-6-(4-methoxyphenoxy)-2-methyl-tetrahydropyran-3-yl] benzoate

> <PUBCHEM_IUPAC_CAS_NAME>
benzoic acid [(2R,3R,4S,5R,6R)-5-benzoyloxy-4-[[(2S,3R,4S,5R)-4,5-diacetyloxy-3-(1,4-dioxopentoxy)-2-oxanyl]oxy]-6-(4-methoxyphenoxy)-2-methyl-3-oxanyl] ester

> <PUBCHEM_IUPAC_NAME_MARKUP>
[(2<I>R</I>,3<I>R</I>,4<I>S</I>,5<I>R</I>,6<I>R</I>)-5-benzoyloxy-4-[(2<I>S</I>,3<I>R</I>,4<I>S</I>,5<I>R</I>)-4,5-diacetyloxy-3-(4-oxopentanoyloxy)oxan-2-yl]oxy-6-(4-methoxyphenoxy)-2-methyloxan-3-yl] benzoate

> <PUBCHEM_IUPAC_NAME>
[(2R,3R,4S,5R,6R)-5-benzoyloxy-4-[(2S,3R,4S,5R)-4,5-diacetyloxy-3-(4-oxopentanoyloxy)oxan-2-yl]oxy-6-(4-methoxyphenoxy)-2-methyloxan-3-yl] benzoate

> <PUBCHEM_IUPAC_SYSTEMATIC_NAME>
[(2R,3R,4S,5R,6R)-4-[(2S,3R,4S,5R)-4,5-diacetyloxy-3-(4-oxidanylidenepentanoyloxy)oxan-2-yl]oxy-6-(4-methoxyphenoxy)-2-methyl-5-(phenylcarbonyloxy)oxan-3-yl] benzoate

> <PUBCHEM_IUPAC_TRADITIONAL_NAME>
benzoic acid [(2R,3R,4S,5R,6R)-5-benzoyloxy-4-[(2S,3R,4S,5R)-4,5-diacetoxy-3-(4-ketopentanoyloxy)tetrahydropyran-2-yl]oxy-6-(4-methoxyphenoxy)-2-methyl-tetrahydropyran-3-yl] ester

> <PUBCHEM_IUPAC_INCHI>
InChI=1S/C41H44O16/c1-23(42)16-21-32(45)54-36-34(52-26(4)44)31(51-25(3)43)22-49-40(36)57-35-33(55-38(46)27-12-8-6-9-13-27)24(2)50-41(53-30-19-17-29(48-5)18-20-30)37(35)56-39(47)28-14-10-7-11-15-28/h6-15,17-20,24,31,33-37,40-41H,16,21-22H2,1-5H3/t24-,31-,33-,34+,35+,36-,37-,40+,41-/m1/s1

> <PUBCHEM_IUPAC_INCHIKEY>
KGDDUHLZPCPRCS-QCNVDRHXSA-N

> <PUBCHEM_XLOGP3_AA>
4.5

> <PUBCHEM_EXACT_MASS>
792.26293531

> <PUBCHEM_MOLECULAR_FORMULA>
C41H44O16

> <PUBCHEM_MOLECULAR_WEIGHT>
792.8

> <PUBCHEM_OPENEYE_CAN_SMILES>
CC1C(C(C(C(O1)OC2=CC=C(C=C2)OC)OC(=O)C3=CC=CC=C3)OC4C(C(C(CO4)OC(=O)C)OC(=O)C)OC(=O)CCC(=O)C)OC(=O)C5=CC=CC=C5

> <PUBCHEM_OPENEYE_ISO_SMILES>
C[C@@H]1[C@H]([C@@H]([C@H]([C@H](O1)OC2=CC=C(C=C2)OC)OC(=O)C3=CC=CC=C3)O[C@H]4[C@@H]([C@H]([C@@H](CO4)OC(=O)C)OC(=O)C)OC(=O)CCC(=O)C)OC(=O)C5=CC=CC=C5

> <PUBCHEM_CACTVS_TPSA>
195

> <PUBCHEM_MONOISOTOPIC_WEIGHT>
792.26293531

> <PUBCHEM_TOTAL_CHARGE>
0

> <PUBCHEM_HEAVY_ATOM_COUNT>
57

> <PUBCHEM_ATOM_DEF_STEREO_COUNT>
9

> <PUBCHEM_ATOM_UDEF_STEREO_COUNT>
0

> <PUBCHEM_BOND_DEF_STEREO_COUNT>
0

> <PUBCHEM_BOND_UDEF_STEREO_COUNT>
0

> <PUBCHEM_ISOTOPIC_ATOM_COUNT>
0

> <PUBCHEM_COMPONENT_COUNT>
1

> <PUBCHEM_CACTVS_TAUTO_COUNT>
-1

> <PUBCHEM_COORDINATE_TYPE>
1
5
255

> <PUBCHEM_BONDANNOTATIONS>
17  1  5
21  1  5
20  27  5
30  37  8
30  38  8
35  42  8
35  43  8
36  46  8
36  47  8
37  44  8
38  45  8
18  4  6
42  50  8
43  51  8
44  48  8
45  48  8
46  52  8
47  53  8
19  5  6
50  54  8
51  54  8
52  55  8
53  55  8
22  6  6
23  7  6
24  8  5
25  9  6

$$$$
