 
  -OEChem-10192103442D

 89 93  0     1  0  0  0  0  0999 V2000
    3.3808   -0.4338    0.0000 O   0  0  0  0  0  0  0  0  0  0  0  0
    2.5163   -0.9969    0.0000 O   0  0  0  0  0  0  0  0  0  0  0  0
    5.5493   -5.4826    0.0000 O   0  0  0  0  0  0  0  0  0  0  0  0
    7.8271    4.4969    0.0000 O   0  0  0  0  0  0  0  0  0  0  0  0
    7.2684   -4.2911    0.0000 O   0  0  0  0  0  0  0  0  0  0  0  0
    5.3670    5.1295    0.0000 O   0  0  0  0  0  0  0  0  0  0  0  0
    3.0584   -4.9851    0.0000 O   0  0  0  0  0  0  0  0  0  0  0  0
    5.6827    0.8890    0.0000 C   0  0  1  0  0  0  0  0  0  0  0  0
    4.6827    0.8890    0.0000 C   0  0  2  0  0  0  0  0  0  0  0  0
    6.2174    1.7830    0.0000 C   0  0  2  0  0  0  0  0  0  0  0  0
    5.1827   -1.3016    0.0000 C   0  0  2  0  0  0  0  0  0  0  0  0
    5.2766   -2.3390    0.0000 C   0  0  2  0  0  0  0  0  0  0  0  0
    4.2817   -0.8677    0.0000 C   0  0  1  0  0  0  0  0  0  0  0  0
    5.7035    2.6890    0.0000 C   0  0  2  0  0  0  0  0  0  0  0  0
    4.4205   -2.9324    0.0000 C   0  0  2  0  0  0  0  0  0  0  0  0
    4.0592    0.1072    0.0000 C   0  0  0  0  0  0  0  0  0  0  0  0
    6.3062    0.1072    0.0000 C   0  0  0  0  0  0  0  0  0  0  0  0
    6.0837   -0.8677    0.0000 C   0  0  0  0  0  0  0  0  0  0  0  0
    4.1480    1.7830    0.0000 C   0  0  0  0  0  0  0  0  0  0  0  0
    3.4122   -1.4412    0.0000 C   0  0  2  0  0  0  0  0  0  0  0  0
    6.2388    3.6328    0.0000 C   0  0  2  0  0  0  0  0  0  0  0  0
    4.6619    2.6890    0.0000 C   0  0  0  0  0  0  0  0  0  0  0  0
    4.4932   -4.0150    0.0000 C   0  0  2  0  0  0  0  0  0  0  0  0
    3.4820   -2.4804    0.0000 C   0  0  0  0  0  0  0  0  0  0  0  0
    7.3021    1.7579    0.0000 C   0  0  0  0  0  0  0  0  0  0  0  0
    6.2647   -2.7870    0.0000 C   0  0  0  0  0  0  0  0  0  0  0  0
    3.6827    0.8890    0.0000 C   0  0  0  0  0  0  0  0  0  0  0  0
    7.3238    3.6328    0.0000 C   0  0  1  0  0  0  0  0  0  0  0  0
    5.4708   -4.4857    0.0000 C   0  0  1  0  0  0  0  0  0  0  0  0
    6.7107    0.9131    0.0000 C   0  0  0  0  0  0  0  0  0  0  0  0
    6.0984   -1.7693    0.0000 C   0  0  0  0  0  0  0  0  0  0  0  0
    6.3625   -3.8676    0.0000 C   0  0  2  0  0  0  0  0  0  0  0  0
    7.8590    2.6890    0.0000 C   0  0  0  0  0  0  0  0  0  0  0  0
    6.2349    4.6328    0.0000 C   0  0  0  0  0  0  0  0  0  0  0  0
    4.0559   -4.9142    0.0000 C   0  0  0  0  0  0  0  0  0  0  0  0
    5.3708    4.1295    0.0000 C   0  0  0  0  0  0  0  0  0  0  0  0
    3.4957   -4.0858    0.0000 C   0  0  0  0  0  0  0  0  0  0  0  0
    6.5308    0.9460    0.0000 H   0  0  0  0  0  0  0  0  0  0  0  0
    5.9221   -1.7209    0.0000 H   0  0  0  0  0  0  0  0  0  0  0  0
    5.2757    3.4235    0.0000 H   0  0  0  0  0  0  0  0  0  0  0  0
    3.7163   -3.4085    0.0000 H   0  0  0  0  0  0  0  0  0  0  0  0
    3.6727    0.5919    0.0000 H   0  0  0  0  0  0  0  0  0  0  0  0
    3.5006   -0.1618    0.0000 H   0  0  0  0  0  0  0  0  0  0  0  0
    6.8648   -0.1618    0.0000 H   0  0  0  0  0  0  0  0  0  0  0  0
    6.6928    0.5919    0.0000 H   0  0  0  0  0  0  0  0  0  0  0  0
    6.2216   -1.4722    0.0000 H   0  0  0  0  0  0  0  0  0  0  0  0
    6.7037   -0.8677    0.0000 H   0  0  0  0  0  0  0  0  0  0  0  0
    3.6690    2.1766    0.0000 H   0  0  0  0  0  0  0  0  0  0  0  0
    3.6783    1.3784    0.0000 H   0  0  0  0  0  0  0  0  0  0  0  0
    2.8966   -1.7855    0.0000 H   0  0  0  0  0  0  0  0  0  0  0  0
    4.7680    3.2999    0.0000 H   0  0  0  0  0  0  0  0  0  0  0  0
    4.0782    2.8981    0.0000 H   0  0  0  0  0  0  0  0  0  0  0  0
    2.8654   -2.4156    0.0000 H   0  0  0  0  0  0  0  0  0  0  0  0
    3.3125   -3.0768    0.0000 H   0  0  0  0  0  0  0  0  0  0  0  0
    7.1819    1.1496    0.0000 H   0  0  0  0  0  0  0  0  0  0  0  0
    7.8808    1.5354    0.0000 H   0  0  0  0  0  0  0  0  0  0  0  0
    6.8827   -2.8377    0.0000 H   0  0  0  0  0  0  0  0  0  0  0  0
    6.4204   -2.1869    0.0000 H   0  0  0  0  0  0  0  0  0  0  0  0
    3.6827    1.5090    0.0000 H   0  0  0  0  0  0  0  0  0  0  0  0
    3.0627    0.8890    0.0000 H   0  0  0  0  0  0  0  0  0  0  0  0
    3.6827    0.2690    0.0000 H   0  0  0  0  0  0  0  0  0  0  0  0
    4.9592   -4.8360    0.0000 H   0  0  0  0  0  0  0  0  0  0  0  0
    7.0148    4.1704    0.0000 H   0  0  0  0  0  0  0  0  0  0  0  0
    6.1714    0.6073    0.0000 H   0  0  0  0  0  0  0  0  0  0  0  0
    7.0165    0.3738    0.0000 H   0  0  0  0  0  0  0  0  0  0  0  0
    7.2500    1.2190    0.0000 H   0  0  0  0  0  0  0  0  0  0  0  0
    6.4516   -2.2789    0.0000 H   0  0  0  0  0  0  0  0  0  0  0  0
    6.6080   -1.4161    0.0000 H   0  0  0  0  0  0  0  0  0  0  0  0
    5.7452   -1.2598    0.0000 H   0  0  0  0  0  0  0  0  0  0  0  0
    6.8700   -3.5115    0.0000 H   0  0  0  0  0  0  0  0  0  0  0  0
    8.3288    2.2844    0.0000 H   0  0  0  0  0  0  0  0  0  0  0  0
    8.3380    3.0827    0.0000 H   0  0  0  0  0  0  0  0  0  0  0  0
    3.3344    0.1844    0.0000 H   0  0  0  0  0  0  0  0  0  0  0  0
    6.8459    4.5275    0.0000 H   0  0  0  0  0  0  0  0  0  0  0  0
    6.4447    5.2162    0.0000 H   0  0  0  0  0  0  0  0  0  0  0  0
    3.9918   -5.5309    0.0000 H   0  0  0  0  0  0  0  0  0  0  0  0
    4.6520   -5.0845    0.0000 H   0  0  0  0  0  0  0  0  0  0  0  0
    5.6788    4.6676    0.0000 H   0  0  0  0  0  0  0  0  0  0  0  0
    4.8327    4.4374    0.0000 H   0  0  0  0  0  0  0  0  0  0  0  0
    5.0629    3.5914    0.0000 H   0  0  0  0  0  0  0  0  0  0  0  0
    3.4518   -3.4674    0.0000 H   0  0  0  0  0  0  0  0  0  0  0  0
    2.8773   -4.1298    0.0000 H   0  0  0  0  0  0  0  0  0  0  0  0
    3.5397   -4.7043    0.0000 H   0  0  0  0  0  0  0  0  0  0  0  0
    2.0000   -1.3402    0.0000 H   0  0  0  0  0  0  0  0  0  0  0  0
    6.1090   -5.7495    0.0000 H   0  0  0  0  0  0  0  0  0  0  0  0
    8.4471    4.4945    0.0000 H   0  0  0  0  0  0  0  0  0  0  0  0
    7.7766   -3.9359    0.0000 H   0  0  0  0  0  0  0  0  0  0  0  0
    5.3646    5.7495    0.0000 H   0  0  0  0  0  0  0  0  0  0  0  0
    2.7872   -5.5427    0.0000 H   0  0  0  0  0  0  0  0  0  0  0  0
 13  1  1  6  0  0  0
  1 73  1  0  0  0  0
 20  2  1  6  0  0  0
  2 84  1  0  0  0  0
 29  3  1  1  0  0  0
  3 85  1  0  0  0  0
 28  4  1  6  0  0  0
  4 86  1  0  0  0  0
 32  5  1  1  0  0  0
  5 87  1  0  0  0  0
  6 34  1  0  0  0  0
  6 88  1  0  0  0  0
  7 35  1  0  0  0  0
  7 89  1  0  0  0  0
  8  9  1  0  0  0  0
  8 10  1  0  0  0  0
  8 17  1  0  0  0  0
  8 38  1  6  0  0  0
  9 16  1  0  0  0  0
  9 19  1  0  0  0  0
  9 27  1  1  0  0  0
 10 14  1  0  0  0  0
 10 25  1  0  0  0  0
 10 30  1  1  0  0  0
 11 12  1  0  0  0  0
 11 13  1  0  0  0  0
 11 18  1  0  0  0  0
 11 39  1  1  0  0  0
 12 15  1  0  0  0  0
 12 26  1  0  0  0  0
 12 31  1  6  0  0  0
 13 16  1  0  0  0  0
 13 20  1  0  0  0  0
 14 21  1  0  0  0  0
 14 22  1  0  0  0  0
 14 40  1  6  0  0  0
 15 23  1  0  0  0  0
 15 24  1  0  0  0  0
 15 41  1  1  0  0  0
 16 42  1  0  0  0  0
 16 43  1  0  0  0  0
 17 18  1  0  0  0  0
 17 44  1  0  0  0  0
 17 45  1  0  0  0  0
 18 46  1  0  0  0  0
 18 47  1  0  0  0  0
 19 22  1  0  0  0  0
 19 48  1  0  0  0  0
 19 49  1  0  0  0  0
 20 24  1  0  0  0  0
 20 50  1  0  0  0  0
 21 28  1  0  0  0  0
 21 34  1  0  0  0  0
 21 36  1  6  0  0  0
 22 51  1  0  0  0  0
 22 52  1  0  0  0  0
 23 29  1  0  0  0  0
 23 35  1  0  0  0  0
 23 37  1  1  0  0  0
 24 53  1  0  0  0  0
 24 54  1  0  0  0  0
 25 33  1  0  0  0  0
 25 55  1  0  0  0  0
 25 56  1  0  0  0  0
 26 32  1  0  0  0  0
 26 57  1  0  0  0  0
 26 58  1  0  0  0  0
 27 59  1  0  0  0  0
 27 60  1  0  0  0  0
 27 61  1  0  0  0  0
 28 33  1  0  0  0  0
 28 63  1  0  0  0  0
 29 32  1  0  0  0  0
 29 62  1  0  0  0  0
 30 64  1  0  0  0  0
 30 65  1  0  0  0  0
 30 66  1  0  0  0  0
 31 67  1  0  0  0  0
 31 68  1  0  0  0  0
 31 69  1  0  0  0  0
 32 70  1  0  0  0  0
 33 71  1  0  0  0  0
 33 72  1  0  0  0  0
 34 74  1  0  0  0  0
 34 75  1  0  0  0  0
 35 76  1  0  0  0  0
 35 77  1  0  0  0  0
 36 78  1  0  0  0  0
 36 79  1  0  0  0  0
 36 80  1  0  0  0  0
 37 81  1  0  0  0  0
 37 82  1  0  0  0  0
 37 83  1  0  0  0  0
M  END
> <PUBCHEM_COMPOUND_CID>
101840053

> <PUBCHEM_COMPOUND_CANONICALIZED>
1

> <PUBCHEM_CACTVS_COMPLEXITY>
899

> <PUBCHEM_CACTVS_HBOND_ACCEPTOR>
7

> <PUBCHEM_CACTVS_HBOND_DONOR>
7

> <PUBCHEM_CACTVS_ROTATABLE_BOND>
2

> <PUBCHEM_CACTVS_SUBSKEYS>
AAADcfB4OAAAAAAAAAAAAAAAAAAAAAAAAAAwYMGABgAAAADAAAAAGgAACAAAD1SggAICAAAAAgAAAAAAAAAAAAAAAAAAAAAAAAABEAIAAAAAQAAFAAABAAHA4PQPgAAAAAAAAADAAAYAADCAAAAAAAAAAA==

> <PUBCHEM_IUPAC_OPENEYE_NAME>
(1R,3S,6R,7S,8R,11R,12S,15R,16S,18R,19S,20S,21R,23S)-7,20-bis(hydroxymethyl)-3,7,11,16,20-pentamethyl-pentacyclo[13.8.0.03,12.06,11.016,21]tricosane-1,8,18,19,23-pentol

> <PUBCHEM_IUPAC_CAS_NAME>
(1R,3S,6R,7S,8R,11R,12S,15R,16S,18R,19S,20S,21R,23S)-7,20-bis(hydroxymethyl)-3,7,11,16,20-pentamethylpentacyclo[13.8.0.03,12.06,11.016,21]tricosane-1,8,18,19,23-pentol

> <PUBCHEM_IUPAC_NAME_MARKUP>
(1<I>R</I>,3<I>S</I>,6<I>R</I>,7<I>S</I>,8<I>R</I>,11<I>R</I>,12<I>S</I>,15<I>R</I>,16<I>S</I>,18<I>R</I>,19<I>S</I>,20<I>S</I>,21<I>R</I>,23<I>S</I>)-7,20-bis(hydroxymethyl)-3,7,11,16,20-pentamethylpentacyclo[13.8.0.0<SUP>3,12</SUP>.0<SUP>6,11</SUP>.0<SUP>16,21</SUP>]tricosane-1,8,18,19,23-pentol

> <PUBCHEM_IUPAC_NAME>
(1R,3S,6R,7S,8R,11R,12S,15R,16S,18R,19S,20S,21R,23S)-7,20-bis(hydroxymethyl)-3,7,11,16,20-pentamethylpentacyclo[13.8.0.03,12.06,11.016,21]tricosane-1,8,18,19,23-pentol

> <PUBCHEM_IUPAC_SYSTEMATIC_NAME>
(1R,3S,6R,7S,8R,11R,12S,15R,16S,18R,19S,20S,21R,23S)-7,20-bis(hydroxymethyl)-3,7,11,16,20-pentamethyl-pentacyclo[13.8.0.03,12.06,11.016,21]tricosane-1,8,18,19,23-pentol

> <PUBCHEM_IUPAC_TRADITIONAL_NAME>
(1R,3S,6R,7S,8R,11R,12S,15R,16S,18R,19S,20S,21R,23S)-3,7,11,16,20-pentamethyl-7,20-dimethylol-pentacyclo[13.8.0.03,12.06,11.016,21]tricosane-1,8,18,19,23-pentol

> <PUBCHEM_IUPAC_INCHI>
InChI=1S/C30H52O7/c1-25-10-8-19-26(2,11-9-22(34)28(19,4)15-31)18(25)6-7-20-27(3)13-17(33)24(36)29(5,16-32)21(27)12-23(35)30(20,37)14-25/h17-24,31-37H,6-16H2,1-5H3/t17-,18+,19-,20-,21-,22-,23+,24-,25+,26-,27-,28-,29-,30-/m1/s1

> <PUBCHEM_IUPAC_INCHIKEY>
OQJDVIOLWZVSDV-VAEUMROLSA-N

> <PUBCHEM_XLOGP3_AA>
3.6

> <PUBCHEM_EXACT_MASS>
524.37130399

> <PUBCHEM_MOLECULAR_FORMULA>
C30H52O7

> <PUBCHEM_MOLECULAR_WEIGHT>
524.7

> <PUBCHEM_OPENEYE_CAN_SMILES>
CC12CCC3C(C1CCC4C5(CC(C(C(C5CC(C4(C2)O)O)(C)CO)O)O)C)(CCC(C3(C)CO)O)C

> <PUBCHEM_OPENEYE_ISO_SMILES>
C[C@@]12CC[C@@H]3[C@@]([C@H]1CC[C@@H]4[C@]5(C[C@H]([C@H]([C@]([C@@H]5C[C@@H]([C@]4(C2)O)O)(C)CO)O)O)C)(CC[C@H]([C@]3(C)CO)O)C

> <PUBCHEM_CACTVS_TPSA>
142

> <PUBCHEM_MONOISOTOPIC_WEIGHT>
524.37130399

> <PUBCHEM_TOTAL_CHARGE>
0

> <PUBCHEM_HEAVY_ATOM_COUNT>
37

> <PUBCHEM_ATOM_DEF_STEREO_COUNT>
14

> <PUBCHEM_ATOM_UDEF_STEREO_COUNT>
0

> <PUBCHEM_BOND_DEF_STEREO_COUNT>
0

> <PUBCHEM_BOND_UDEF_STEREO_COUNT>
0

> <PUBCHEM_ISOTOPIC_ATOM_COUNT>
0

> <PUBCHEM_COMPONENT_COUNT>
1

> <PUBCHEM_CACTVS_TAUTO_COUNT>
-1

> <PUBCHEM_COORDINATE_TYPE>
1
5
255

> <PUBCHEM_BONDANNOTATIONS>
13  1  6
10  30  5
11  39  5
12  31  6
14  40  6
15  41  5
20  2  6
21  36  6
23  37  5
29  3  5
28  4  6
32  5  5
8  38  6
9  27  5

$$$$
