 
  -OEChem-10192103482D

 28 28  0     0  0  0  0  0  0999 V2000
    6.0010   -1.8100    0.0000 O   0  0  0  0  0  0  0  0  0  0  0  0
    2.5369    1.1900    0.0000 O   0  0  0  0  0  0  0  0  0  0  0  0
    6.8671   -0.3100    0.0000 O   0  0  0  0  0  0  0  0  0  0  0  0
    5.1350    2.6900    0.0000 O   0  0  0  0  0  0  0  0  0  0  0  0
    3.4030    2.6900    0.0000 O   0  0  0  0  0  0  0  0  0  0  0  0
    3.4030   -0.3100    0.0000 C   0  0  0  0  0  0  0  0  0  0  0  0
    5.1350   -0.3100    0.0000 C   0  0  0  0  0  0  0  0  0  0  0  0
    3.4030    0.6900    0.0000 C   0  0  0  0  0  0  0  0  0  0  0  0
    4.2690    1.1900    0.0000 C   0  0  0  0  0  0  0  0  0  0  0  0
    4.2690   -0.8100    0.0000 C   0  0  0  0  0  0  0  0  0  0  0  0
    5.1350    0.6900    0.0000 C   0  0  0  0  0  0  0  0  0  0  0  0
    2.5369   -0.8100    0.0000 C   0  0  0  0  0  0  0  0  0  0  0  0
    6.0010   -0.8100    0.0000 C   0  0  0  0  0  0  0  0  0  0  0  0
    4.2690    2.1900    0.0000 C   0  0  0  0  0  0  0  0  0  0  0  0
    6.8671   -2.3100    0.0000 C   0  0  0  0  0  0  0  0  0  0  0  0
    6.8671   -3.3100    0.0000 C   0  0  0  0  0  0  0  0  0  0  0  0
    4.2690   -1.4300    0.0000 H   0  0  0  0  0  0  0  0  0  0  0  0
    5.6720    1.0000    0.0000 H   0  0  0  0  0  0  0  0  0  0  0  0
    2.2269   -0.2731    0.0000 H   0  0  0  0  0  0  0  0  0  0  0  0
    2.0000   -1.1200    0.0000 H   0  0  0  0  0  0  0  0  0  0  0  0
    2.8469   -1.3469    0.0000 H   0  0  0  0  0  0  0  0  0  0  0  0
    7.4776   -2.4177    0.0000 H   0  0  0  0  0  0  0  0  0  0  0  0
    7.0791   -1.7274    0.0000 H   0  0  0  0  0  0  0  0  0  0  0  0
    2.0000    0.8800    0.0000 H   0  0  0  0  0  0  0  0  0  0  0  0
    6.2471   -3.3100    0.0000 H   0  0  0  0  0  0  0  0  0  0  0  0
    6.8671   -3.9300    0.0000 H   0  0  0  0  0  0  0  0  0  0  0  0
    7.4871   -3.3100    0.0000 H   0  0  0  0  0  0  0  0  0  0  0  0
    5.1350    3.3100    0.0000 H   0  0  0  0  0  0  0  0  0  0  0  0
  1 13  1  0  0  0  0
  1 15  1  0  0  0  0
  2  8  1  0  0  0  0
  2 24  1  0  0  0  0
  3 13  2  0  0  0  0
  4 14  1  0  0  0  0
  4 28  1  0  0  0  0
  5 14  2  0  0  0  0
  6  8  1  0  0  0  0
  6 10  2  0  0  0  0
  6 12  1  0  0  0  0
  7 10  1  0  0  0  0
  7 11  2  0  0  0  0
  7 13  1  0  0  0  0
  8  9  2  0  0  0  0
  9 11  1  0  0  0  0
  9 14  1  0  0  0  0
 10 17  1  0  0  0  0
 11 18  1  0  0  0  0
 12 19  1  0  0  0  0
 12 20  1  0  0  0  0
 12 21  1  0  0  0  0
 15 16  1  0  0  0  0
 15 22  1  0  0  0  0
 15 23  1  0  0  0  0
 16 25  1  0  0  0  0
 16 26  1  0  0  0  0
 16 27  1  0  0  0  0
M  END
> <PUBCHEM_COMPOUND_CID>
66676332

> <PUBCHEM_COMPOUND_CANONICALIZED>
1

> <PUBCHEM_CACTVS_COMPLEXITY>
276

> <PUBCHEM_CACTVS_HBOND_ACCEPTOR>
5

> <PUBCHEM_CACTVS_HBOND_DONOR>
2

> <PUBCHEM_CACTVS_ROTATABLE_BOND>
4

> <PUBCHEM_CACTVS_SUBSKEYS>
AAADccBwOAAAAAAAAAAAAAAAAAAAAAAAAAAwAAAAAAAAAAABAAAAGgAACAAADASgmAIyDoAABgCIAiDSCAACAAAkIAAAiAEECMgIJzaCNRqCcUAl4BEIuYeI7mzOIAACAAAIAABAAAQAABAAAAAAAAAAAA==

> <PUBCHEM_IUPAC_OPENEYE_NAME>
5-ethoxycarbonyl-2-hydroxy-3-methyl-benzoic acid

> <PUBCHEM_IUPAC_CAS_NAME>
5-ethoxycarbonyl-2-hydroxy-3-methylbenzoic acid

> <PUBCHEM_IUPAC_NAME_MARKUP>
5-ethoxycarbonyl-2-hydroxy-3-methylbenzoic acid

> <PUBCHEM_IUPAC_NAME>
5-ethoxycarbonyl-2-hydroxy-3-methylbenzoic acid

> <PUBCHEM_IUPAC_SYSTEMATIC_NAME>
5-ethoxycarbonyl-3-methyl-2-oxidanyl-benzoic acid

> <PUBCHEM_IUPAC_TRADITIONAL_NAME>
5-carbethoxy-2-hydroxy-3-methyl-benzoic acid

> <PUBCHEM_IUPAC_INCHI>
InChI=1S/C11H12O5/c1-3-16-11(15)7-4-6(2)9(12)8(5-7)10(13)14/h4-5,12H,3H2,1-2H3,(H,13,14)

> <PUBCHEM_IUPAC_INCHIKEY>
SEDFVVQVKQBPMO-UHFFFAOYSA-N

> <PUBCHEM_XLOGP3>
2.9

> <PUBCHEM_EXACT_MASS>
224.06847348

> <PUBCHEM_MOLECULAR_FORMULA>
C11H12O5

> <PUBCHEM_MOLECULAR_WEIGHT>
224.21

> <PUBCHEM_OPENEYE_CAN_SMILES>
CCOC(=O)C1=CC(=C(C(=C1)C)O)C(=O)O

> <PUBCHEM_OPENEYE_ISO_SMILES>
CCOC(=O)C1=CC(=C(C(=C1)C)O)C(=O)O

> <PUBCHEM_CACTVS_TPSA>
83.8

> <PUBCHEM_MONOISOTOPIC_WEIGHT>
224.06847348

> <PUBCHEM_TOTAL_CHARGE>
0

> <PUBCHEM_HEAVY_ATOM_COUNT>
16

> <PUBCHEM_ATOM_DEF_STEREO_COUNT>
0

> <PUBCHEM_ATOM_UDEF_STEREO_COUNT>
0

> <PUBCHEM_BOND_DEF_STEREO_COUNT>
0

> <PUBCHEM_BOND_UDEF_STEREO_COUNT>
0

> <PUBCHEM_ISOTOPIC_ATOM_COUNT>
0

> <PUBCHEM_COMPONENT_COUNT>
1

> <PUBCHEM_CACTVS_TAUTO_COUNT>
-1

> <PUBCHEM_COORDINATE_TYPE>
1
5
255

> <PUBCHEM_BONDANNOTATIONS>
6  10  8
6  8  8
7  10  8
7  11  8
8  9  8
9  11  8

$$$$
