 
  -OEChem-10192104102D

104109  0     1  0  0  0  0  0999 V2000
    6.8671   -3.8970    0.0000 O   0  0  0  0  0  0  0  0  0  0  0  0
    5.0597   -2.8442    0.0000 O   0  0  0  0  0  0  0  0  0  0  0  0
    9.3112   -3.2053    0.0000 O   0  0  0  0  0  0  0  0  0  0  0  0
    8.6209    5.3824    0.0000 O   0  0  0  0  0  0  0  0  0  0  0  0
    9.5042    3.8926    0.0000 O   0  0  0  0  0  0  0  0  0  0  0  0
    5.1350   -3.8970    0.0000 O   0  0  0  0  0  0  0  0  0  0  0  0
    5.8747    6.6749    0.0000 O   0  0  0  0  0  0  0  0  0  0  0  0
    4.3882    5.7858    0.0000 O   0  0  0  0  0  0  0  0  0  0  0  0
    6.8671   -5.8970    0.0000 O   0  0  0  0  0  0  0  0  0  0  0  0
    5.1350   -6.8970    0.0000 O   0  0  0  0  0  0  0  0  0  0  0  0
    3.4030   -5.8970    0.0000 O   0  0  0  0  0  0  0  0  0  0  0  0
    2.5369   -4.3970    0.0000 O   0  0  0  0  0  0  0  0  0  0  0  0
    7.7681    0.8032    0.0000 C   0  0  2  0  0  0  0  0  0  0  0  0
    6.8920   -0.7417    0.0000 C   0  0  2  0  0  0  0  0  0  0  0  0
    6.9040    0.2999    0.0000 C   0  0  1  0  0  0  0  0  0  0  0  0
    7.7643    1.8032    0.0000 C   0  0  1  0  0  0  0  0  0  0  0  0
    7.7920   -1.2660    0.0000 C   0  0  3  0  0  0  0  0  0  0  0  0
    8.6801    0.2999    0.0000 C   0  0  0  0  0  0  0  0  0  0  0  0
    7.8046   -2.3509    0.0000 C   0  0  1  0  0  0  0  0  0  0  0  0
    8.6921   -0.7417    0.0000 C   0  0  0  0  0  0  0  0  0  0  0  0
    6.8963    2.2999    0.0000 C   0  0  0  0  0  0  0  0  0  0  0  0
    5.9421   -1.2660    0.0000 C   0  0  0  0  0  0  0  0  0  0  0  0
    6.0361    0.7966    0.0000 C   0  0  0  0  0  0  0  0  0  0  0  0
    6.8762    3.3413    0.0000 C   0  0  2  0  0  0  0  0  0  0  0  0
    8.6723    2.3136    0.0000 C   0  0  0  0  0  0  0  0  0  0  0  0
    7.7722    3.8725    0.0000 C   0  0  1  0  0  0  0  0  0  0  0  0
    6.8671   -2.8970    0.0000 C   0  0  2  0  0  0  0  0  0  0  0  0
    8.7522    0.9807    0.0000 C   0  0  0  0  0  0  0  0  0  0  0  0
    5.9295   -2.3509    0.0000 C   0  0  1  0  0  0  0  0  0  0  0  0
    8.6763    3.3552    0.0000 C   0  0  0  0  0  0  0  0  0  0  0  0
    6.0279   -0.2383    0.0000 C   0  0  0  0  0  0  0  0  0  0  0  0
    6.0322    1.7965    0.0000 C   0  0  0  0  0  0  0  0  0  0  0  0
    8.7497    1.6334    0.0000 C   0  0  0  0  0  0  0  0  0  0  0  0
    5.9223    3.8583    0.0000 C   0  0  0  0  0  0  0  0  0  0  0  0
    7.7764    4.9575    0.0000 C   0  0  0  0  0  0  0  0  0  0  0  0
    8.3113   -3.2130    0.0000 C   0  0  0  0  0  0  0  0  0  0  0  0
    8.8046   -2.3432    0.0000 C   0  0  0  0  0  0  0  0  0  0  0  0
    5.9014    4.9431    0.0000 C   0  0  2  0  0  0  0  0  0  0  0  0
    6.8347    5.4964    0.0000 C   0  0  0  0  0  0  0  0  0  0  0  0
    8.6324    4.3825    0.0000 C   0  0  0  0  0  0  0  0  0  0  0  0
    4.9015    4.9276    0.0000 C   0  0  0  0  0  0  0  0  0  0  0  0
    5.3881    5.8013    0.0000 C   0  0  0  0  0  0  0  0  0  0  0  0
    6.0010   -4.3970    0.0000 C   0  0  2  0  0  0  0  0  0  0  0  0
    6.0010   -5.3970    0.0000 C   0  0  1  0  0  0  0  0  0  0  0  0
    5.1350   -5.8970    0.0000 C   0  0  2  0  0  0  0  0  0  0  0  0
    4.2690   -4.3970    0.0000 C   0  0  1  0  0  0  0  0  0  0  0  0
    4.2690   -5.3970    0.0000 C   0  0  1  0  0  0  0  0  0  0  0  0
    3.4030   -3.8970    0.0000 C   0  0  0  0  0  0  0  0  0  0  0  0
    7.6385   -0.1279    0.0000 H   0  0  0  0  0  0  0  0  0  0  0  0
    8.5314   -1.6853    0.0000 H   0  0  0  0  0  0  0  0  0  0  0  0
    9.2921    0.2009    0.0000 H   0  0  0  0  0  0  0  0  0  0  0  0
    8.8824    0.8860    0.0000 H   0  0  0  0  0  0  0  0  0  0  0  0
    8.9079   -1.3229    0.0000 H   0  0  0  0  0  0  0  0  0  0  0  0
    9.3017   -0.6285    0.0000 H   0  0  0  0  0  0  0  0  0  0  0  0
    5.7398   -0.6799    0.0000 H   0  0  0  0  0  0  0  0  0  0  0  0
    5.3300   -1.3650    0.0000 H   0  0  0  0  0  0  0  0  0  0  0  0
    5.4251    0.9019    0.0000 H   0  0  0  0  0  0  0  0  0  0  0  0
    5.8263    0.2131    0.0000 H   0  0  0  0  0  0  0  0  0  0  0  0
    6.1502    2.8994    0.0000 H   0  0  0  0  0  0  0  0  0  0  0  0
    8.8791    1.7291    0.0000 H   0  0  0  0  0  0  0  0  0  0  0  0
    9.2836    2.4173    0.0000 H   0  0  0  0  0  0  0  0  0  0  0  0
    7.4046   -3.2060    0.0000 H   0  0  0  0  0  0  0  0  0  0  0  0
    8.8623    0.3705    0.0000 H   0  0  0  0  0  0  0  0  0  0  0  0
    9.3624    1.0907    0.0000 H   0  0  0  0  0  0  0  0  0  0  0  0
    8.6422    1.5908    0.0000 H   0  0  0  0  0  0  0  0  0  0  0  0
    5.3956   -2.0357    0.0000 H   0  0  0  0  0  0  0  0  0  0  0  0
    9.2868    3.2468    0.0000 H   0  0  0  0  0  0  0  0  0  0  0  0
    8.8876    3.9381    0.0000 H   0  0  0  0  0  0  0  0  0  0  0  0
    6.3400    0.2974    0.0000 H   0  0  0  0  0  0  0  0  0  0  0  0
    5.4922    0.0737    0.0000 H   0  0  0  0  0  0  0  0  0  0  0  0
    5.7158   -0.7741    0.0000 H   0  0  0  0  0  0  0  0  0  0  0  0
    5.4941    2.1045    0.0000 H   0  0  0  0  0  0  0  0  0  0  0  0
    8.6444    1.0224    0.0000 H   0  0  0  0  0  0  0  0  0  0  0  0
    9.3607    1.5281    0.0000 H   0  0  0  0  0  0  0  0  0  0  0  0
    8.8550    2.2444    0.0000 H   0  0  0  0  0  0  0  0  0  0  0  0
    5.3095    3.9526    0.0000 H   0  0  0  0  0  0  0  0  0  0  0  0
    5.7246    3.2706    0.0000 H   0  0  0  0  0  0  0  0  0  0  0  0
    8.3869    4.8491    0.0000 H   0  0  0  0  0  0  0  0  0  0  0  0
    7.9877    5.5404    0.0000 H   0  0  0  0  0  0  0  0  0  0  0  0
    7.7303   -3.4296    0.0000 H   0  0  0  0  0  0  0  0  0  0  0  0
    8.4236   -3.8228    0.0000 H   0  0  0  0  0  0  0  0  0  0  0  0
    8.8094   -2.9632    0.0000 H   0  0  0  0  0  0  0  0  0  0  0  0
    9.4246   -2.3384    0.0000 H   0  0  0  0  0  0  0  0  0  0  0  0
    8.7998   -1.7232    0.0000 H   0  0  0  0  0  0  0  0  0  0  0  0
    7.2302    5.9739    0.0000 H   0  0  0  0  0  0  0  0  0  0  0  0
    6.4319    5.9677    0.0000 H   0  0  0  0  0  0  0  0  0  0  0  0
    4.5251   -2.5301    0.0000 H   0  0  0  0  0  0  0  0  0  0  0  0
    4.8920    5.5476    0.0000 H   0  0  0  0  0  0  0  0  0  0  0  0
    4.2816    4.9181    0.0000 H   0  0  0  0  0  0  0  0  0  0  0  0
    4.9111    4.3077    0.0000 H   0  0  0  0  0  0  0  0  0  0  0  0
    6.5380   -4.7070    0.0000 H   0  0  0  0  0  0  0  0  0  0  0  0
    9.6254   -3.7398    0.0000 H   0  0  0  0  0  0  0  0  0  0  0  0
    9.1542    5.6986    0.0000 H   0  0  0  0  0  0  0  0  0  0  0  0
    6.0010   -6.0170    0.0000 H   0  0  0  0  0  0  0  0  0  0  0  0
    4.5981   -6.2070    0.0000 H   0  0  0  0  0  0  0  0  0  0  0  0
    5.5565    7.2070    0.0000 H   0  0  0  0  0  0  0  0  0  0  0  0
    4.2690   -3.7770    0.0000 H   0  0  0  0  0  0  0  0  0  0  0  0
    4.2690   -6.0170    0.0000 H   0  0  0  0  0  0  0  0  0  0  0  0
    6.8671   -6.5170    0.0000 H   0  0  0  0  0  0  0  0  0  0  0  0
    3.8015   -3.4220    0.0000 H   0  0  0  0  0  0  0  0  0  0  0  0
    3.0044   -3.4220    0.0000 H   0  0  0  0  0  0  0  0  0  0  0  0
    4.5981   -7.2070    0.0000 H   0  0  0  0  0  0  0  0  0  0  0  0
    3.4030   -6.5170    0.0000 H   0  0  0  0  0  0  0  0  0  0  0  0
    2.0000   -4.0870    0.0000 H   0  0  0  0  0  0  0  0  0  0  0  0
 27  1  1  1  0  0  0
 43  1  1  1  0  0  0
 29  2  1  1  0  0  0
  2 87  1  0  0  0  0
  3 36  1  0  0  0  0
  3 92  1  0  0  0  0
  4 40  1  0  0  0  0
  4 93  1  0  0  0  0
  5 40  2  0  0  0  0
  6 43  1  0  0  0  0
  6 46  1  0  0  0  0
  7 42  1  0  0  0  0
  7 96  1  0  0  0  0
  8 42  2  0  0  0  0
 44  9  1  6  0  0  0
  9 99  1  0  0  0  0
 45 10  1  1  0  0  0
 10102  1  0  0  0  0
 47 11  1  6  0  0  0
 11103  1  0  0  0  0
 12 48  1  0  0  0  0
 12104  1  0  0  0  0
 13 15  1  0  0  0  0
 13 16  1  0  0  0  0
 13 18  1  0  0  0  0
 13 28  1  1  0  0  0
 14 15  1  0  0  0  0
 14 17  1  0  0  0  0
 14 22  1  0  0  0  0
 14 31  1  1  0  0  0
 15 23  1  0  0  0  0
 15 49  1  6  0  0  0
 16 21  1  0  0  0  0
 16 25  1  0  0  0  0
 16 33  1  6  0  0  0
 17 19  1  0  0  0  0
 17 20  1  0  0  0  0
 17 50  1  0  0  0  0
 18 20  1  0  0  0  0
 18 51  1  0  0  0  0
 18 52  1  0  0  0  0
 19 27  1  0  0  0  0
 19 36  1  0  0  0  0
 19 37  1  1  0  0  0
 20 53  1  0  0  0  0
 20 54  1  0  0  0  0
 21 24  1  0  0  0  0
 21 32  2  0  0  0  0
 22 29  1  0  0  0  0
 22 55  1  0  0  0  0
 22 56  1  0  0  0  0
 23 32  1  0  0  0  0
 23 57  1  0  0  0  0
 23 58  1  0  0  0  0
 24 26  1  0  0  0  0
 24 34  1  0  0  0  0
 24 59  1  6  0  0  0
 25 30  1  0  0  0  0
 25 60  1  0  0  0  0
 25 61  1  0  0  0  0
 26 30  1  0  0  0  0
 26 35  1  0  0  0  0
 26 40  1  1  0  0  0
 27 29  1  0  0  0  0
 27 62  1  0  0  0  0
 28 63  1  0  0  0  0
 28 64  1  0  0  0  0
 28 65  1  0  0  0  0
 29 66  1  0  0  0  0
 30 67  1  0  0  0  0
 30 68  1  0  0  0  0
 31 69  1  0  0  0  0
 31 70  1  0  0  0  0
 31 71  1  0  0  0  0
 32 72  1  0  0  0  0
 33 73  1  0  0  0  0
 33 74  1  0  0  0  0
 33 75  1  0  0  0  0
 34 38  1  0  0  0  0
 34 76  1  0  0  0  0
 34 77  1  0  0  0  0
 35 39  1  0  0  0  0
 35 78  1  0  0  0  0
 35 79  1  0  0  0  0
 36 80  1  0  0  0  0
 36 81  1  0  0  0  0
 37 82  1  0  0  0  0
 37 83  1  0  0  0  0
 37 84  1  0  0  0  0
 38 39  1  0  0  0  0
 38 41  1  1  0  0  0
 38 42  1  0  0  0  0
 39 85  1  0  0  0  0
 39 86  1  0  0  0  0
 41 88  1  0  0  0  0
 41 89  1  0  0  0  0
 41 90  1  0  0  0  0
 43 44  1  0  0  0  0
 43 91  1  0  0  0  0
 44 45  1  0  0  0  0
 44 94  1  0  0  0  0
 45 47  1  0  0  0  0
 45 95  1  0  0  0  0
 46 47  1  0  0  0  0
 46 48  1  1  0  0  0
 46 97  1  0  0  0  0
 47 98  1  0  0  0  0
 48100  1  0  0  0  0
 48101  1  0  0  0  0
M  END
> <PUBCHEM_COMPOUND_CID>
6454041

> <PUBCHEM_COMPOUND_CANONICALIZED>
1

> <PUBCHEM_CACTVS_COMPLEXITY>
1340

> <PUBCHEM_CACTVS_HBOND_ACCEPTOR>
12

> <PUBCHEM_CACTVS_HBOND_DONOR>
8

> <PUBCHEM_CACTVS_ROTATABLE_BOND>
6

> <PUBCHEM_CACTVS_SUBSKEYS>
AAADcfB8PAAAAAAAAAAAAAAAAAAAAAAAAAA0YMGCAAAAAADAAAAAGgAACAAADxSwgAMCCAAABgCIAiDSCAAAAAAgAAAACAEAAAgREBIAAQAiQAAFgAAPAAPI6PyPgAAAAAAAAADAAAYAADCAAAAAAAAAAA==

> <PUBCHEM_IUPAC_OPENEYE_NAME>
(2R,4aR,6aR,6aS,6bR,9R,10R,11S,12aR,14bR)-11-hydroxy-9-(hydroxymethyl)-2,6a,6b,9,12a-pentamethyl-10-[(2R,3R,4S,5S,6R)-3,4,5-trihydroxy-6-(hydroxymethyl)tetrahydropyran-2-yl]oxy-1,3,4,5,6,6a,7,8,8a,10,11,12,13,14b-tetradecahydropicene-2,4a-dicarboxylic acid

> <PUBCHEM_IUPAC_CAS_NAME>
(2R,4aR,6aR,6aS,6bR,9R,10R,11S,12aR,14bR)-11-hydroxy-9-(hydroxymethyl)-2,6a,6b,9,12a-pentamethyl-10-[[(2R,3R,4S,5S,6R)-3,4,5-trihydroxy-6-(hydroxymethyl)-2-oxanyl]oxy]-1,3,4,5,6,6a,7,8,8a,10,11,12,13,14b-tetradecahydropicene-2,4a-dicarboxylic acid

> <PUBCHEM_IUPAC_NAME_MARKUP>
(2<I>R</I>,4<I>a</I><I>R</I>,6<I>a</I><I>R</I>,6<I>a</I><I>S</I>,6<I>b</I><I>R</I>,9<I>R</I>,10<I>R</I>,11<I>S</I>,12<I>a</I><I>R</I>,14<I>b</I><I>R</I>)-11-hydroxy-9-(hydroxymethyl)-2,6<I>a</I>,6<I>b</I>,9,12<I>a</I>-pentamethyl-10-[(2<I>R</I>,3<I>R</I>,4<I>S</I>,5<I>S</I>,6<I>R</I>)-3,4,5-trihydroxy-6-(hydroxymethyl)oxan-2-yl]oxy-1,3,4,5,6,6<I>a</I>,7,8,8<I>a</I>,10,11,12,13,14<I>b</I>-tetradecahydropicene-2,4<I>a</I>-dicarboxylic acid

> <PUBCHEM_IUPAC_NAME>
(2R,4aR,6aR,6aS,6bR,9R,10R,11S,12aR,14bR)-11-hydroxy-9-(hydroxymethyl)-2,6a,6b,9,12a-pentamethyl-10-[(2R,3R,4S,5S,6R)-3,4,5-trihydroxy-6-(hydroxymethyl)oxan-2-yl]oxy-1,3,4,5,6,6a,7,8,8a,10,11,12,13,14b-tetradecahydropicene-2,4a-dicarboxylic acid

> <PUBCHEM_IUPAC_SYSTEMATIC_NAME>
(2R,4aR,6aR,6aS,6bR,9R,10R,11S,12aR,14bR)-9-(hydroxymethyl)-10-[(2R,3R,4S,5S,6R)-6-(hydroxymethyl)-3,4,5-tris(oxidanyl)oxan-2-yl]oxy-2,6a,6b,9,12a-pentamethyl-11-oxidanyl-1,3,4,5,6,6a,7,8,8a,10,11,12,13,14b-tetradecahydropicene-2,4a-dicarboxylic acid

> <PUBCHEM_IUPAC_TRADITIONAL_NAME>
(2R,4aR,6aR,6aS,6bR,9R,10R,11S,12aR,14bR)-11-hydroxy-2,6a,6b,9,12a-pentamethyl-9-methylol-10-[(2R,3R,4S,5S,6R)-3,4,5-trihydroxy-6-methylol-tetrahydropyran-2-yl]oxy-1,3,4,5,6,6a,7,8,8a,10,11,12,13,14b-tetradecahydropicene-2,4a-dicarboxylic acid

> <PUBCHEM_IUPAC_INCHI>
InChI=1S/C36H56O12/c1-31(29(43)44)10-12-36(30(45)46)13-11-34(4)18(19(36)14-31)6-7-23-32(2)15-20(39)27(33(3,17-38)22(32)8-9-35(23,34)5)48-28-26(42)25(41)24(40)21(16-37)47-28/h6,19-28,37-42H,7-17H2,1-5H3,(H,43,44)(H,45,46)/t19-,20+,21-,22?,23-,24-,25+,26-,27+,28+,31-,32+,33+,34-,35-,36+/m1/s1

> <PUBCHEM_IUPAC_INCHIKEY>
HYBMIQRHHBBMMB-VZOUTUJFSA-N

> <PUBCHEM_XLOGP3_AA>
2

> <PUBCHEM_EXACT_MASS>
680.37717722

> <PUBCHEM_MOLECULAR_FORMULA>
C36H56O12

> <PUBCHEM_MOLECULAR_WEIGHT>
680.8

> <PUBCHEM_OPENEYE_CAN_SMILES>
CC1(CCC2(CCC3(C(=CCC4C3(CCC5C4(CC(C(C5(C)CO)OC6C(C(C(C(O6)CO)O)O)O)O)C)C)C2C1)C)C(=O)O)C(=O)O

> <PUBCHEM_OPENEYE_ISO_SMILES>
C[C@]1(CC[C@@]2(CC[C@@]3(C(=CC[C@H]4[C@]3(CCC5[C@@]4(C[C@@H]([C@@H]([C@@]5(C)CO)O[C@H]6[C@@H]([C@H]([C@@H]([C@H](O6)CO)O)O)O)O)C)C)[C@H]2C1)C)C(=O)O)C(=O)O

> <PUBCHEM_CACTVS_TPSA>
214

> <PUBCHEM_MONOISOTOPIC_WEIGHT>
680.37717722

> <PUBCHEM_TOTAL_CHARGE>
0

> <PUBCHEM_HEAVY_ATOM_COUNT>
48

> <PUBCHEM_ATOM_DEF_STEREO_COUNT>
15

> <PUBCHEM_ATOM_UDEF_STEREO_COUNT>
1

> <PUBCHEM_BOND_DEF_STEREO_COUNT>
0

> <PUBCHEM_BOND_UDEF_STEREO_COUNT>
0

> <PUBCHEM_ISOTOPIC_ATOM_COUNT>
0

> <PUBCHEM_COMPONENT_COUNT>
1

> <PUBCHEM_CACTVS_TAUTO_COUNT>
1

> <PUBCHEM_COORDINATE_TYPE>
1
5
255

> <PUBCHEM_BONDANNOTATIONS>
27  1  5
43  1  5
45  10  5
47  11  6
13  28  5
14  31  5
15  49  6
16  33  6
17  50  3
19  37  5
29  2  5
24  59  6
26  40  5
38  41  5
46  48  5
44  9  6

$$$$
