 
  -OEChem-10192103422D

 54 53  0     1  0  0  0  0  0999 V2000
    6.0010    0.0600    0.0000 O   0  0  0  0  0  0  0  0  0  0  0  0
    2.5369    1.0600    0.0000 O   0  0  0  0  0  0  0  0  0  0  0  0
    3.4030    2.5600    0.0000 O   0  0  0  0  0  0  0  0  0  0  0  0
    2.5369   -1.9400    0.0000 O   0  0  0  0  0  0  0  0  0  0  0  0
    4.2690   -1.9400    0.0000 O   0  0  0  0  0  0  0  0  0  0  0  0
    5.1350    1.5600    0.0000 N   0  0  0  0  0  0  0  0  0  0  0  0
   10.3312    1.5600    0.0000 C   0  0  0  0  0  0  0  0  0  0  0  0
   11.1972    1.0600    0.0000 C   0  0  0  0  0  0  0  0  0  0  0  0
    9.4651    1.0600    0.0000 C   0  0  0  0  0  0  0  0  0  0  0  0
   12.0632    1.5600    0.0000 C   0  0  0  0  0  0  0  0  0  0  0  0
    8.5991    1.5600    0.0000 C   0  0  0  0  0  0  0  0  0  0  0  0
   12.9292    1.0600    0.0000 C   0  0  0  0  0  0  0  0  0  0  0  0
    7.7331    1.0600    0.0000 C   0  0  0  0  0  0  0  0  0  0  0  0
   13.7953    1.5600    0.0000 C   0  0  0  0  0  0  0  0  0  0  0  0
    6.8671    1.5600    0.0000 C   0  0  0  0  0  0  0  0  0  0  0  0
   14.6613    1.0600    0.0000 C   0  0  0  0  0  0  0  0  0  0  0  0
    4.2690    1.0600    0.0000 C   0  0  1  0  0  0  0  0  0  0  0  0
    6.0010    1.0600    0.0000 C   0  0  0  0  0  0  0  0  0  0  0  0
    4.2690    0.0600    0.0000 C   0  0  0  0  0  0  0  0  0  0  0  0
   15.5273    1.5600    0.0000 C   0  0  0  0  0  0  0  0  0  0  0  0
    3.4030   -0.4400    0.0000 C   0  0  0  0  0  0  0  0  0  0  0  0
    3.4030    1.5600    0.0000 C   0  0  0  0  0  0  0  0  0  0  0  0
    3.4030   -1.4400    0.0000 C   0  0  0  0  0  0  0  0  0  0  0  0
   10.7297    2.0349    0.0000 H   0  0  0  0  0  0  0  0  0  0  0  0
    9.9326    2.0349    0.0000 H   0  0  0  0  0  0  0  0  0  0  0  0
   10.7987    0.5851    0.0000 H   0  0  0  0  0  0  0  0  0  0  0  0
   11.5957    0.5851    0.0000 H   0  0  0  0  0  0  0  0  0  0  0  0
    9.0666    0.5851    0.0000 H   0  0  0  0  0  0  0  0  0  0  0  0
    9.8637    0.5851    0.0000 H   0  0  0  0  0  0  0  0  0  0  0  0
   12.4617    2.0349    0.0000 H   0  0  0  0  0  0  0  0  0  0  0  0
   11.6647    2.0349    0.0000 H   0  0  0  0  0  0  0  0  0  0  0  0
    8.9976    2.0349    0.0000 H   0  0  0  0  0  0  0  0  0  0  0  0
    8.2006    2.0349    0.0000 H   0  0  0  0  0  0  0  0  0  0  0  0
   12.5307    0.5851    0.0000 H   0  0  0  0  0  0  0  0  0  0  0  0
   13.3278    0.5851    0.0000 H   0  0  0  0  0  0  0  0  0  0  0  0
    7.3346    0.5851    0.0000 H   0  0  0  0  0  0  0  0  0  0  0  0
    8.1316    0.5851    0.0000 H   0  0  0  0  0  0  0  0  0  0  0  0
   14.1938    2.0349    0.0000 H   0  0  0  0  0  0  0  0  0  0  0  0
   13.3967    2.0349    0.0000 H   0  0  0  0  0  0  0  0  0  0  0  0
    7.2656    2.0349    0.0000 H   0  0  0  0  0  0  0  0  0  0  0  0
    6.4685    2.0349    0.0000 H   0  0  0  0  0  0  0  0  0  0  0  0
   14.2628    0.5851    0.0000 H   0  0  0  0  0  0  0  0  0  0  0  0
   15.0598    0.5851    0.0000 H   0  0  0  0  0  0  0  0  0  0  0  0
    4.2690    1.6800    0.0000 H   0  0  0  0  0  0  0  0  0  0  0  0
    4.4810   -0.5226    0.0000 H   0  0  0  0  0  0  0  0  0  0  0  0
    4.8796    0.1677    0.0000 H   0  0  0  0  0  0  0  0  0  0  0  0
    5.1350    2.1800    0.0000 H   0  0  0  0  0  0  0  0  0  0  0  0
   15.8373    1.0231    0.0000 H   0  0  0  0  0  0  0  0  0  0  0  0
   16.0643    1.8700    0.0000 H   0  0  0  0  0  0  0  0  0  0  0  0
   15.2173    2.0969    0.0000 H   0  0  0  0  0  0  0  0  0  0  0  0
    3.1909    0.1426    0.0000 H   0  0  0  0  0  0  0  0  0  0  0  0
    2.7924   -0.5477    0.0000 H   0  0  0  0  0  0  0  0  0  0  0  0
    2.0000    1.3700    0.0000 H   0  0  0  0  0  0  0  0  0  0  0  0
    2.5369   -2.5600    0.0000 H   0  0  0  0  0  0  0  0  0  0  0  0
  1 18  2  0  0  0  0
  2 22  1  0  0  0  0
  2 53  1  0  0  0  0
  3 22  2  0  0  0  0
  4 23  1  0  0  0  0
  4 54  1  0  0  0  0
  5 23  2  0  0  0  0
 17  6  1  1  0  0  0
  6 18  1  0  0  0  0
  6 47  1  0  0  0  0
  7  8  1  0  0  0  0
  7  9  1  0  0  0  0
  7 24  1  0  0  0  0
  7 25  1  0  0  0  0
  8 10  1  0  0  0  0
  8 26  1  0  0  0  0
  8 27  1  0  0  0  0
  9 11  1  0  0  0  0
  9 28  1  0  0  0  0
  9 29  1  0  0  0  0
 10 12  1  0  0  0  0
 10 30  1  0  0  0  0
 10 31  1  0  0  0  0
 11 13  1  0  0  0  0
 11 32  1  0  0  0  0
 11 33  1  0  0  0  0
 12 14  1  0  0  0  0
 12 34  1  0  0  0  0
 12 35  1  0  0  0  0
 13 15  1  0  0  0  0
 13 36  1  0  0  0  0
 13 37  1  0  0  0  0
 14 16  1  0  0  0  0
 14 38  1  0  0  0  0
 14 39  1  0  0  0  0
 15 18  1  0  0  0  0
 15 40  1  0  0  0  0
 15 41  1  0  0  0  0
 16 20  1  0  0  0  0
 16 42  1  0  0  0  0
 16 43  1  0  0  0  0
 17 19  1  0  0  0  0
 17 22  1  0  0  0  0
 17 44  1  0  0  0  0
 19 21  1  0  0  0  0
 19 45  1  0  0  0  0
 19 46  1  0  0  0  0
 20 48  1  0  0  0  0
 20 49  1  0  0  0  0
 20 50  1  0  0  0  0
 21 23  1  0  0  0  0
 21 51  1  0  0  0  0
 21 52  1  0  0  0  0
M  END
> <PUBCHEM_COMPOUND_CID>
93133

> <PUBCHEM_COMPOUND_CANONICALIZED>
1

> <PUBCHEM_CACTVS_COMPLEXITY>
357

> <PUBCHEM_CACTVS_HBOND_ACCEPTOR>
5

> <PUBCHEM_CACTVS_HBOND_DONOR>
3

> <PUBCHEM_CACTVS_ROTATABLE_BOND>
15

> <PUBCHEM_CACTVS_SUBSKEYS>
AAADceB6OAAAAAAAAAAAAAAAAAAAAAAAAAAAAAAAAAAAAAAAAAAAHgAQCAAACCjBgAQCCALAAgAIAAGQGAAAAAAAAAAAAIGIAAACABIAgCAEQAAEFgCQAAG8roCAAAAAAAAAAAAAAAAAAAAAAAAAAAAAAA==

> <PUBCHEM_IUPAC_OPENEYE_NAME>
(2S)-2-(dodecanoylamino)pentanedioic acid

> <PUBCHEM_IUPAC_CAS_NAME>
(2S)-2-(1-oxododecylamino)pentanedioic acid

> <PUBCHEM_IUPAC_NAME_MARKUP>
(2<I>S</I>)-2-(dodecanoylamino)pentanedioic acid

> <PUBCHEM_IUPAC_NAME>
(2S)-2-(dodecanoylamino)pentanedioic acid

> <PUBCHEM_IUPAC_SYSTEMATIC_NAME>
(2S)-2-(dodecanoylamino)pentanedioic acid

> <PUBCHEM_IUPAC_TRADITIONAL_NAME>
(2S)-2-(lauroylamino)glutaric acid

> <PUBCHEM_IUPAC_INCHI>
InChI=1S/C17H31NO5/c1-2-3-4-5-6-7-8-9-10-11-15(19)18-14(17(22)23)12-13-16(20)21/h14H,2-13H2,1H3,(H,18,19)(H,20,21)(H,22,23)/t14-/m0/s1

> <PUBCHEM_IUPAC_INCHIKEY>
AVBJHQDHVYGQLS-AWEZNQCLSA-N

> <PUBCHEM_XLOGP3_AA>
4.2

> <PUBCHEM_EXACT_MASS>
329.22022309

> <PUBCHEM_MOLECULAR_FORMULA>
C17H31NO5

> <PUBCHEM_MOLECULAR_WEIGHT>
329.4

> <PUBCHEM_OPENEYE_CAN_SMILES>
CCCCCCCCCCCC(=O)NC(CCC(=O)O)C(=O)O

> <PUBCHEM_OPENEYE_ISO_SMILES>
CCCCCCCCCCCC(=O)N[C@@H](CCC(=O)O)C(=O)O

> <PUBCHEM_CACTVS_TPSA>
104

> <PUBCHEM_MONOISOTOPIC_WEIGHT>
329.22022309

> <PUBCHEM_TOTAL_CHARGE>
0

> <PUBCHEM_HEAVY_ATOM_COUNT>
23

> <PUBCHEM_ATOM_DEF_STEREO_COUNT>
1

> <PUBCHEM_ATOM_UDEF_STEREO_COUNT>
0

> <PUBCHEM_BOND_DEF_STEREO_COUNT>
0

> <PUBCHEM_BOND_UDEF_STEREO_COUNT>
0

> <PUBCHEM_ISOTOPIC_ATOM_COUNT>
0

> <PUBCHEM_COMPONENT_COUNT>
1

> <PUBCHEM_CACTVS_TAUTO_COUNT>
2

> <PUBCHEM_COORDINATE_TYPE>
1
5
255

> <PUBCHEM_BONDANNOTATIONS>
17  6  5

$$$$
