 
  -OEChem-10192103472D

 96 99  0     1  0  0  0  0  0999 V2000
    7.1962   -1.5346    0.0000 O   0  0  0  0  0  0  0  0  0  0  0  0
    5.4641   -1.5346    0.0000 O   0  0  0  0  0  0  0  0  0  0  0  0
    6.3301    0.9654    0.0000 O   0  0  0  0  0  0  0  0  0  0  0  0
    8.9282   -0.5346    0.0000 O   0  0  0  0  0  0  0  0  0  0  0  0
    7.1962   -3.5346    0.0000 O   0  0  0  0  0  0  0  0  0  0  0  0
    5.4641   -4.5346    0.0000 O   0  0  0  0  0  0  0  0  0  0  0  0
    3.7320   -3.5346    0.0000 O   0  0  0  0  0  0  0  0  0  0  0  0
    8.9282    1.4654    0.0000 O   0  0  0  0  0  0  0  0  0  0  0  0
    7.1962    2.4654    0.0000 O   0  0  0  0  0  0  0  0  0  0  0  0
    4.5981   -0.0346    0.0000 O   0  0  0  0  0  0  0  0  0  0  0  0
    3.7320   -0.5346    0.0000 O   0  0  0  0  0  0  0  0  0  0  0  0
    9.7942    0.9654    0.0000 O   0  0  0  0  0  0  0  0  0  0  0  0
    6.3301   -5.0346    0.0000 O   0  0  0  0  0  0  0  0  0  0  0  0
    3.7320   -4.5346    0.0000 O   0  0  0  0  0  0  0  0  0  0  0  0
    2.8660   -2.0346    0.0000 O   0  0  0  0  0  0  0  0  0  0  0  0
    8.0622    2.9654    0.0000 O   0  0  0  0  0  0  0  0  0  0  0  0
    5.4641    1.4654    0.0000 O   0  0  0  0  0  0  0  0  0  0  0  0
    7.1962    4.4654    0.0000 O   0  0  0  0  0  0  0  0  0  0  0  0
    2.8660    0.9654    0.0000 O   0  0  0  0  0  0  0  0  0  0  0  0
    3.7320    2.4654    0.0000 O   0  0  0  0  0  0  0  0  0  0  0  0
    7.1962   -0.5346    0.0000 C   0  0  3  0  0  0  0  0  0  0  0  0
    8.0622   -0.0346    0.0000 C   0  0  3  0  0  0  0  0  0  0  0  0
    6.3301   -2.0346    0.0000 C   0  0  3  0  0  0  0  0  0  0  0  0
    6.3301   -3.0346    0.0000 C   0  0  3  0  0  0  0  0  0  0  0  0
    6.3301   -0.0346    0.0000 C   0  0  3  0  0  0  0  0  0  0  0  0
    5.4641   -3.5346    0.0000 C   0  0  3  0  0  0  0  0  0  0  0  0
    4.5981   -3.0346    0.0000 C   0  0  3  0  0  0  0  0  0  0  0  0
    8.0622    0.9654    0.0000 C   0  0  3  0  0  0  0  0  0  0  0  0
    4.5981   -2.0346    0.0000 C   0  0  3  0  0  0  0  0  0  0  0  0
    7.1962    1.4654    0.0000 C   0  0  3  0  0  0  0  0  0  0  0  0
    5.4641   -0.5346    0.0000 C   0  0  0  0  0  0  0  0  0  0  0  0
    3.7320   -1.5346    0.0000 C   0  0  0  0  0  0  0  0  0  0  0  0
    9.7942   -0.0346    0.0000 C   0  0  0  0  0  0  0  0  0  0  0  0
    7.1962   -4.5346    0.0000 C   0  0  0  0  0  0  0  0  0  0  0  0
    4.5981   -5.0346    0.0000 C   0  0  0  0  0  0  0  0  0  0  0  0
    2.8660   -3.0346    0.0000 C   0  0  0  0  0  0  0  0  0  0  0  0
    6.3301    2.9654    0.0000 C   0  0  0  0  0  0  0  0  0  0  0  0
    8.9282    2.4654    0.0000 C   0  0  0  0  0  0  0  0  0  0  0  0
   10.6603   -0.5346    0.0000 C   0  0  0  0  0  0  0  0  0  0  0  0
    4.5981    0.9654    0.0000 C   0  0  0  0  0  0  0  0  0  0  0  0
    8.0622   -5.0346    0.0000 C   0  0  0  0  0  0  0  0  0  0  0  0
    4.5981   -6.0346    0.0000 C   0  0  0  0  0  0  0  0  0  0  0  0
    6.3301    3.9654    0.0000 C   0  0  0  0  0  0  0  0  0  0  0  0
    2.0000   -3.5346    0.0000 C   0  0  0  0  0  0  0  0  0  0  0  0
    2.8660   -0.0346    0.0000 C   0  0  0  0  0  0  0  0  0  0  0  0
    9.7942    2.9654    0.0000 C   0  0  0  0  0  0  0  0  0  0  0  0
    5.4641    2.4654    0.0000 C   0  0  0  0  0  0  0  0  0  0  0  0
    5.4641    4.4654    0.0000 C   0  0  0  0  0  0  0  0  0  0  0  0
    4.5981    2.9654    0.0000 C   0  0  0  0  0  0  0  0  0  0  0  0
    3.7320    1.4654    0.0000 C   0  0  0  0  0  0  0  0  0  0  0  0
    4.5981    3.9654    0.0000 C   0  0  0  0  0  0  0  0  0  0  0  0
    2.0000   -0.5346    0.0000 C   0  0  0  0  0  0  0  0  0  0  0  0
    5.4802    5.5069    0.0000 C   0  0  0  0  0  0  0  0  0  0  0  0
    3.6881    4.4722    0.0000 C   0  0  0  0  0  0  0  0  0  0  0  0
    4.5821    6.0346    0.0000 C   0  0  0  0  0  0  0  0  0  0  0  0
    3.6800    5.5138    0.0000 C   0  0  0  0  0  0  0  0  0  0  0  0
    7.7331   -0.8446    0.0000 H   0  0  0  0  0  0  0  0  0  0  0  0
    8.5991    0.2754    0.0000 H   0  0  0  0  0  0  0  0  0  0  0  0
    6.3301   -1.4146    0.0000 H   0  0  0  0  0  0  0  0  0  0  0  0
    6.3301   -3.6546    0.0000 H   0  0  0  0  0  0  0  0  0  0  0  0
    5.7932    0.2754    0.0000 H   0  0  0  0  0  0  0  0  0  0  0  0
    4.9272   -3.8446    0.0000 H   0  0  0  0  0  0  0  0  0  0  0  0
    4.5981   -3.6546    0.0000 H   0  0  0  0  0  0  0  0  0  0  0  0
    8.5991    0.6554    0.0000 H   0  0  0  0  0  0  0  0  0  0  0  0
    4.5981   -1.4146    0.0000 H   0  0  0  0  0  0  0  0  0  0  0  0
    7.7331    1.7754    0.0000 H   0  0  0  0  0  0  0  0  0  0  0  0
    5.0656   -1.0096    0.0000 H   0  0  0  0  0  0  0  0  0  0  0  0
    5.8626   -1.0096    0.0000 H   0  0  0  0  0  0  0  0  0  0  0  0
    3.1215   -1.4270    0.0000 H   0  0  0  0  0  0  0  0  0  0  0  0
    3.5200   -2.1172    0.0000 H   0  0  0  0  0  0  0  0  0  0  0  0
   10.3503   -1.0716    0.0000 H   0  0  0  0  0  0  0  0  0  0  0  0
   11.1972   -0.8446    0.0000 H   0  0  0  0  0  0  0  0  0  0  0  0
   10.9703    0.0023    0.0000 H   0  0  0  0  0  0  0  0  0  0  0  0
    7.7522   -5.5716    0.0000 H   0  0  0  0  0  0  0  0  0  0  0  0
    8.5991   -5.3446    0.0000 H   0  0  0  0  0  0  0  0  0  0  0  0
    8.3722   -4.4977    0.0000 H   0  0  0  0  0  0  0  0  0  0  0  0
    3.9781   -6.0346    0.0000 H   0  0  0  0  0  0  0  0  0  0  0  0
    4.5981   -6.6546    0.0000 H   0  0  0  0  0  0  0  0  0  0  0  0
    5.2181   -6.0346    0.0000 H   0  0  0  0  0  0  0  0  0  0  0  0
    1.6900   -2.9977    0.0000 H   0  0  0  0  0  0  0  0  0  0  0  0
    1.4631   -3.8446    0.0000 H   0  0  0  0  0  0  0  0  0  0  0  0
    2.3100   -4.0716    0.0000 H   0  0  0  0  0  0  0  0  0  0  0  0
   10.1042    2.4284    0.0000 H   0  0  0  0  0  0  0  0  0  0  0  0
   10.3312    3.2754    0.0000 H   0  0  0  0  0  0  0  0  0  0  0  0
    9.4842    3.5023    0.0000 H   0  0  0  0  0  0  0  0  0  0  0  0
    5.4641    1.8454    0.0000 H   0  0  0  0  0  0  0  0  0  0  0  0
    4.0420    2.0023    0.0000 H   0  0  0  0  0  0  0  0  0  0  0  0
    3.1951    1.7754    0.0000 H   0  0  0  0  0  0  0  0  0  0  0  0
    3.4220    0.9284    0.0000 H   0  0  0  0  0  0  0  0  0  0  0  0
    1.6900    0.0023    0.0000 H   0  0  0  0  0  0  0  0  0  0  0  0
    1.4631   -0.8446    0.0000 H   0  0  0  0  0  0  0  0  0  0  0  0
    2.3100   -1.0716    0.0000 H   0  0  0  0  0  0  0  0  0  0  0  0
    6.0206    5.8106    0.0000 H   0  0  0  0  0  0  0  0  0  0  0  0
    3.1548    4.1560    0.0000 H   0  0  0  0  0  0  0  0  0  0  0  0
    4.5845    6.6546    0.0000 H   0  0  0  0  0  0  0  0  0  0  0  0
    3.1419    5.8217    0.0000 H   0  0  0  0  0  0  0  0  0  0  0  0
  1 21  1  0  0  0  0
  1 23  1  0  0  0  0
  2 23  1  0  0  0  0
  2 29  1  0  0  0  0
  3 25  1  0  0  0  0
  3 30  1  0  0  0  0
  4 22  1  0  0  0  0
  4 33  1  0  0  0  0
  5 24  1  0  0  0  0
  5 34  1  0  0  0  0
  6 26  1  0  0  0  0
  6 35  1  0  0  0  0
  7 27  1  0  0  0  0
  7 36  1  0  0  0  0
  8 28  1  0  0  0  0
  8 38  1  0  0  0  0
  9 30  1  0  0  0  0
  9 37  1  0  0  0  0
 10 31  1  0  0  0  0
 10 40  1  0  0  0  0
 11 32  1  0  0  0  0
 11 45  1  0  0  0  0
 12 33  2  0  0  0  0
 13 34  2  0  0  0  0
 14 35  2  0  0  0  0
 15 36  2  0  0  0  0
 16 38  2  0  0  0  0
 17 40  2  0  0  0  0
 18 43  2  0  0  0  0
 19 45  2  0  0  0  0
 20 49  2  0  0  0  0
 21 22  1  0  0  0  0
 21 25  1  0  0  0  0
 21 57  1  0  0  0  0
 22 28  1  0  0  0  0
 22 58  1  0  0  0  0
 23 24  1  0  0  0  0
 23 59  1  0  0  0  0
 24 26  1  0  0  0  0
 24 60  1  0  0  0  0
 25 31  1  0  0  0  0
 25 61  1  0  0  0  0
 26 27  1  0  0  0  0
 26 62  1  0  0  0  0
 27 29  1  0  0  0  0
 27 63  1  0  0  0  0
 28 30  1  0  0  0  0
 28 64  1  0  0  0  0
 29 32  1  0  0  0  0
 29 65  1  0  0  0  0
 30 66  1  0  0  0  0
 31 67  1  0  0  0  0
 31 68  1  0  0  0  0
 32 69  1  0  0  0  0
 32 70  1  0  0  0  0
 33 39  1  0  0  0  0
 34 41  1  0  0  0  0
 35 42  1  0  0  0  0
 36 44  1  0  0  0  0
 37 43  1  0  0  0  0
 37 47  2  0  0  0  0
 38 46  1  0  0  0  0
 39 71  1  0  0  0  0
 39 72  1  0  0  0  0
 39 73  1  0  0  0  0
 40 50  1  0  0  0  0
 41 74  1  0  0  0  0
 41 75  1  0  0  0  0
 41 76  1  0  0  0  0
 42 77  1  0  0  0  0
 42 78  1  0  0  0  0
 42 79  1  0  0  0  0
 43 48  1  0  0  0  0
 44 80  1  0  0  0  0
 44 81  1  0  0  0  0
 44 82  1  0  0  0  0
 45 52  1  0  0  0  0
 46 83  1  0  0  0  0
 46 84  1  0  0  0  0
 46 85  1  0  0  0  0
 47 49  1  0  0  0  0
 47 86  1  0  0  0  0
 48 51  1  0  0  0  0
 48 53  2  0  0  0  0
 49 51  1  0  0  0  0
 50 87  1  0  0  0  0
 50 88  1  0  0  0  0
 50 89  1  0  0  0  0
 51 54  2  0  0  0  0
 52 90  1  0  0  0  0
 52 91  1  0  0  0  0
 52 92  1  0  0  0  0
 53 55  1  0  0  0  0
 53 93  1  0  0  0  0
 54 56  1  0  0  0  0
 54 94  1  0  0  0  0
 55 56  2  0  0  0  0
 55 95  1  0  0  0  0
 56 96  1  0  0  0  0
M  END
> <PUBCHEM_COMPOUND_CID>
4267250

> <PUBCHEM_COMPOUND_CANONICALIZED>
1

> <PUBCHEM_CACTVS_COMPLEXITY>
1590

> <PUBCHEM_CACTVS_HBOND_ACCEPTOR>
20

> <PUBCHEM_CACTVS_HBOND_DONOR>
0

> <PUBCHEM_CACTVS_ROTATABLE_BOND>
20

> <PUBCHEM_CACTVS_SUBSKEYS>
AAADcfB8PgAAAAAAAAAAAAAAAAAAAAAAAAA0SIEAAAAAAACBAAAAGgAAAAAADBSwmAMyCIAABACIAqDSCAICCAAkIAAIiAFAAMgZIDKAFRSiIQAlwAEOiYfJ7KyOgAAAAAAQAAAAAAAAACAAAAAAAAAAAA==

> <PUBCHEM_IUPAC_OPENEYE_NAME>
[4,5-diacetoxy-6-[(1,4-dioxo-2-naphthyl)oxy]-3-[3,4,5-triacetoxy-6-(acetoxymethyl)tetrahydropyran-2-yl]oxy-tetrahydropyran-2-yl]methyl acetate

> <PUBCHEM_IUPAC_CAS_NAME>
acetic acid [4,5-diacetyloxy-6-[(1,4-dioxo-2-naphthalenyl)oxy]-3-[[3,4,5-triacetyloxy-6-(acetyloxymethyl)-2-oxanyl]oxy]-2-oxanyl]methyl ester

> <PUBCHEM_IUPAC_NAME_MARKUP>
[4,5-diacetyloxy-6-(1,4-dioxonaphthalen-2-yl)oxy-3-[3,4,5-triacetyloxy-6-(acetyloxymethyl)oxan-2-yl]oxyoxan-2-yl]methyl acetate

> <PUBCHEM_IUPAC_NAME>
[4,5-diacetyloxy-6-(1,4-dioxonaphthalen-2-yl)oxy-3-[3,4,5-triacetyloxy-6-(acetyloxymethyl)oxan-2-yl]oxyoxan-2-yl]methyl acetate

> <PUBCHEM_IUPAC_SYSTEMATIC_NAME>
[4,5-diacetyloxy-6-[1,4-bis(oxidanylidene)naphthalen-2-yl]oxy-3-[3,4,5-triacetyloxy-6-(acetyloxymethyl)oxan-2-yl]oxy-oxan-2-yl]methyl ethanoate

> <PUBCHEM_IUPAC_TRADITIONAL_NAME>
acetic acid [4,5-diacetoxy-6-(1,4-diketo-2-naphthoxy)-3-[3,4,5-triacetoxy-6-(acetoxymethyl)tetrahydropyran-2-yl]oxy-tetrahydropyran-2-yl]methyl ester

> <PUBCHEM_IUPAC_INCHI>
InChI=1S/C36H40O20/c1-15(37)46-13-26-29(48-17(3)39)31(49-18(4)40)34(52-21(7)43)36(55-26)56-30-27(14-47-16(2)38)54-35(33(51-20(6)42)32(30)50-19(5)41)53-25-12-24(44)22-10-8-9-11-23(22)28(25)45/h8-12,26-27,29-36H,13-14H2,1-7H3

> <PUBCHEM_IUPAC_INCHIKEY>
DEYFVOXDNWADAV-UHFFFAOYSA-N

> <PUBCHEM_XLOGP3_AA>
0.8

> <PUBCHEM_EXACT_MASS>
792.21129366

> <PUBCHEM_MOLECULAR_FORMULA>
C36H40O20

> <PUBCHEM_MOLECULAR_WEIGHT>
792.7

> <PUBCHEM_OPENEYE_CAN_SMILES>
CC(=O)OCC1C(C(C(C(O1)OC2=CC(=O)C3=CC=CC=C3C2=O)OC(=O)C)OC(=O)C)OC4C(C(C(C(O4)COC(=O)C)OC(=O)C)OC(=O)C)OC(=O)C

> <PUBCHEM_OPENEYE_ISO_SMILES>
CC(=O)OCC1C(C(C(C(O1)OC2=CC(=O)C3=CC=CC=C3C2=O)OC(=O)C)OC(=O)C)OC4C(C(C(C(O4)COC(=O)C)OC(=O)C)OC(=O)C)OC(=O)C

> <PUBCHEM_CACTVS_TPSA>
255

> <PUBCHEM_MONOISOTOPIC_WEIGHT>
792.21129366

> <PUBCHEM_TOTAL_CHARGE>
0

> <PUBCHEM_HEAVY_ATOM_COUNT>
56

> <PUBCHEM_ATOM_DEF_STEREO_COUNT>
0

> <PUBCHEM_ATOM_UDEF_STEREO_COUNT>
10

> <PUBCHEM_BOND_DEF_STEREO_COUNT>
0

> <PUBCHEM_BOND_UDEF_STEREO_COUNT>
0

> <PUBCHEM_ISOTOPIC_ATOM_COUNT>
0

> <PUBCHEM_COMPONENT_COUNT>
1

> <PUBCHEM_CACTVS_TAUTO_COUNT>
-1

> <PUBCHEM_COORDINATE_TYPE>
1
5
255

> <PUBCHEM_BONDANNOTATIONS>
21  1  3
23  1  3
25  31  3
29  32  3
22  4  3
48  51  8
48  53  8
24  5  3
51  54  8
53  55  8
54  56  8
55  56  8
26  6  3
27  7  3
28  8  3
30  9  3

$$$$
