 
  -OEChem-10192103322D

 91 94  0     1  0  0  0  0  0999 V2000
   10.6603    0.0185    0.0000 O   0  0  0  0  0  0  0  0  0  0  0  0
    8.9282   -0.9815    0.0000 O   0  0  0  0  0  0  0  0  0  0  0  0
    8.9282    0.0185    0.0000 O   0  0  0  0  0  0  0  0  0  0  0  0
    7.1962    2.0185    0.0000 O   0  0  0  0  0  0  0  0  0  0  0  0
   10.6603   -2.9815    0.0000 O   0  0  0  0  0  0  0  0  0  0  0  0
    6.3301    0.5185    0.0000 O   0  0  0  0  0  0  0  0  0  0  0  0
    7.1962   -0.9815    0.0000 O   0  0  0  0  0  0  0  0  0  0  0  0
    8.9282    3.0185    0.0000 O   0  0  0  0  0  0  0  0  0  0  0  0
   10.6603    2.0185    0.0000 O   0  0  0  0  0  0  0  0  0  0  0  0
   12.3923   -0.9815    0.0000 O   0  0  0  0  0  0  0  0  0  0  0  0
    5.4641    3.0185    0.0000 O   0  0  0  0  0  0  0  0  0  0  0  0
    9.4522   -3.4212    0.0000 O   0  0  0  0  0  0  0  0  0  0  0  0
    3.7320    2.0185    0.0000 O   0  0  0  0  0  0  0  0  0  0  0  0
    3.7320    0.0185    0.0000 O   0  0  0  0  0  0  0  0  0  0  0  0
    8.4042   -3.4212    0.0000 O   0  0  0  0  0  0  0  0  0  0  0  0
    7.1962   -3.9815    0.0000 O   0  0  0  0  0  0  0  0  0  0  0  0
    5.4641   -2.9815    0.0000 O   0  0  0  0  0  0  0  0  0  0  0  0
    3.7320    3.0185    0.0000 O   0  0  0  0  0  0  0  0  0  0  0  0
    2.8660    0.5185    0.0000 O   0  0  0  0  0  0  0  0  0  0  0  0
    4.5981   -1.4815    0.0000 O   0  0  0  0  0  0  0  0  0  0  0  0
    6.3301   -4.4815    0.0000 O   0  0  0  0  0  0  0  0  0  0  0  0
   10.6603   -0.9815    0.0000 C   0  0  2  0  0  0  0  0  0  0  0  0
    9.7942   -1.4815    0.0000 C   0  0  2  0  0  0  0  0  0  0  0  0
    8.0622    1.5185    0.0000 C   0  0  1  0  0  0  0  0  0  0  0  0
    8.9282    2.0185    0.0000 C   0  0  1  0  0  0  0  0  0  0  0  0
    9.7942    0.5185    0.0000 C   0  0  2  0  0  0  0  0  0  0  0  0
    9.7942    1.5185    0.0000 C   0  0  2  0  0  0  0  0  0  0  0  0
   11.5263   -1.4815    0.0000 C   0  0  1  0  0  0  0  0  0  0  0  0
    9.7942   -2.4815    0.0000 C   0  0  1  0  0  0  0  0  0  0  0  0
    8.0622    0.5185    0.0000 C   0  0  0  0  0  0  0  0  0  0  0  0
    6.3301    1.5185    0.0000 C   0  0  2  0  0  0  0  0  0  0  0  0
    5.4641    2.0185    0.0000 C   0  0  1  0  0  0  0  0  0  0  0  0
    8.0622   -1.4815    0.0000 C   0  0  2  0  0  0  0  0  0  0  0  0
   11.5263   -2.4815    0.0000 C   0  0  0  0  0  0  0  0  0  0  0  0
    4.5981    1.5185    0.0000 C   0  0  2  0  0  0  0  0  0  0  0  0
    8.0622   -2.4815    0.0000 C   0  0  1  0  0  0  0  0  0  0  0  0
    4.5981    0.5185    0.0000 C   0  0  2  0  0  0  0  0  0  0  0  0
    7.1962   -2.9815    0.0000 C   0  0  2  0  0  0  0  0  0  0  0  0
    6.3301   -2.4815    0.0000 C   0  0  2  0  0  0  0  0  0  0  0  0
    5.4641    0.0185    0.0000 C   0  0  0  0  0  0  0  0  0  0  0  0
    6.3301   -1.4815    0.0000 C   0  0  0  0  0  0  0  0  0  0  0  0
    4.5981    3.5185    0.0000 C   0  0  0  0  0  0  0  0  0  0  0  0
    2.8660    1.5185    0.0000 C   0  0  0  0  0  0  0  0  0  0  0  0
    3.7320   -0.9815    0.0000 C   0  0  0  0  0  0  0  0  0  0  0  0
    5.4641   -3.9815    0.0000 C   0  0  0  0  0  0  0  0  0  0  0  0
    4.5981    4.5185    0.0000 C   0  0  0  0  0  0  0  0  0  0  0  0
    2.0000    2.0185    0.0000 C   0  0  0  0  0  0  0  0  0  0  0  0
    2.8660   -1.4815    0.0000 C   0  0  0  0  0  0  0  0  0  0  0  0
    4.5981   -4.4815    0.0000 C   0  0  0  0  0  0  0  0  0  0  0  0
   11.1972   -0.6715    0.0000 H   0  0  0  0  0  0  0  0  0  0  0  0
    9.2573   -1.7915    0.0000 H   0  0  0  0  0  0  0  0  0  0  0  0
    7.5252    1.2085    0.0000 H   0  0  0  0  0  0  0  0  0  0  0  0
    8.3913    2.3285    0.0000 H   0  0  0  0  0  0  0  0  0  0  0  0
    9.7942   -0.1015    0.0000 H   0  0  0  0  0  0  0  0  0  0  0  0
    9.7942    2.1385    0.0000 H   0  0  0  0  0  0  0  0  0  0  0  0
   12.0632   -1.7915    0.0000 H   0  0  0  0  0  0  0  0  0  0  0  0
    9.1836   -2.3739    0.0000 H   0  0  0  0  0  0  0  0  0  0  0  0
    7.4516    0.6261    0.0000 H   0  0  0  0  0  0  0  0  0  0  0  0
    7.8501   -0.0641    0.0000 H   0  0  0  0  0  0  0  0  0  0  0  0
    6.3301    2.1385    0.0000 H   0  0  0  0  0  0  0  0  0  0  0  0
    4.9272    2.3285    0.0000 H   0  0  0  0  0  0  0  0  0  0  0  0
    8.0622   -0.8615    0.0000 H   0  0  0  0  0  0  0  0  0  0  0  0
   11.7383   -3.0641    0.0000 H   0  0  0  0  0  0  0  0  0  0  0  0
   12.1369   -2.3739    0.0000 H   0  0  0  0  0  0  0  0  0  0  0  0
    4.5981    2.1385    0.0000 H   0  0  0  0  0  0  0  0  0  0  0  0
    8.6728   -2.3739    0.0000 H   0  0  0  0  0  0  0  0  0  0  0  0
    4.5981   -0.1015    0.0000 H   0  0  0  0  0  0  0  0  0  0  0  0
    6.6592   -3.2915    0.0000 H   0  0  0  0  0  0  0  0  0  0  0  0
    5.7932   -2.1715    0.0000 H   0  0  0  0  0  0  0  0  0  0  0  0
    5.0656   -0.4565    0.0000 H   0  0  0  0  0  0  0  0  0  0  0  0
    5.8626   -0.4565    0.0000 H   0  0  0  0  0  0  0  0  0  0  0  0
    6.1181   -0.8989    0.0000 H   0  0  0  0  0  0  0  0  0  0  0  0
    5.7196   -1.5892    0.0000 H   0  0  0  0  0  0  0  0  0  0  0  0
    8.3913    3.3285    0.0000 H   0  0  0  0  0  0  0  0  0  0  0  0
   10.6603    2.6385    0.0000 H   0  0  0  0  0  0  0  0  0  0  0  0
   12.9292   -1.2915    0.0000 H   0  0  0  0  0  0  0  0  0  0  0  0
    9.8508   -3.8962    0.0000 H   0  0  0  0  0  0  0  0  0  0  0  0
    8.2966   -4.0318    0.0000 H   0  0  0  0  0  0  0  0  0  0  0  0
    7.5062   -4.5185    0.0000 H   0  0  0  0  0  0  0  0  0  0  0  0
    5.2181    4.5185    0.0000 H   0  0  0  0  0  0  0  0  0  0  0  0
    4.5981    5.1385    0.0000 H   0  0  0  0  0  0  0  0  0  0  0  0
    3.9781    4.5185    0.0000 H   0  0  0  0  0  0  0  0  0  0  0  0
    2.3100    2.5554    0.0000 H   0  0  0  0  0  0  0  0  0  0  0  0
    1.4631    2.3285    0.0000 H   0  0  0  0  0  0  0  0  0  0  0  0
    1.6900    1.4815    0.0000 H   0  0  0  0  0  0  0  0  0  0  0  0
    2.5560   -0.9446    0.0000 H   0  0  0  0  0  0  0  0  0  0  0  0
    2.3291   -1.7915    0.0000 H   0  0  0  0  0  0  0  0  0  0  0  0
    3.1760   -2.0185    0.0000 H   0  0  0  0  0  0  0  0  0  0  0  0
    4.2881   -3.9446    0.0000 H   0  0  0  0  0  0  0  0  0  0  0  0
    4.0611   -4.7915    0.0000 H   0  0  0  0  0  0  0  0  0  0  0  0
    4.9081   -5.0185    0.0000 H   0  0  0  0  0  0  0  0  0  0  0  0
 22  1  1  1  0  0  0
 26  1  1  6  0  0  0
 23  2  1  6  0  0  0
 33  2  1  1  0  0  0
  3 26  1  0  0  0  0
  3 30  1  0  0  0  0
 24  4  1  1  0  0  0
 31  4  1  6  0  0  0
  5 29  1  0  0  0  0
  5 34  1  0  0  0  0
  6 31  1  0  0  0  0
  6 40  1  0  0  0  0
  7 33  1  0  0  0  0
  7 41  1  0  0  0  0
 25  8  1  6  0  0  0
  8 74  1  0  0  0  0
 27  9  1  1  0  0  0
  9 75  1  0  0  0  0
 28 10  1  6  0  0  0
 10 76  1  0  0  0  0
 32 11  1  1  0  0  0
 11 42  1  0  0  0  0
 29 12  1  1  0  0  0
 12 77  1  0  0  0  0
 35 13  1  6  0  0  0
 13 43  1  0  0  0  0
 37 14  1  6  0  0  0
 14 44  1  0  0  0  0
 36 15  1  6  0  0  0
 15 78  1  0  0  0  0
 38 16  1  1  0  0  0
 16 79  1  0  0  0  0
 39 17  1  1  0  0  0
 17 45  1  0  0  0  0
 18 42  2  0  0  0  0
 19 43  2  0  0  0  0
 20 44  2  0  0  0  0
 21 45  2  0  0  0  0
 22 23  1  0  0  0  0
 22 28  1  0  0  0  0
 22 50  1  0  0  0  0
 23 29  1  0  0  0  0
 23 51  1  0  0  0  0
 24 25  1  0  0  0  0
 24 30  1  0  0  0  0
 24 52  1  0  0  0  0
 25 27  1  0  0  0  0
 25 53  1  0  0  0  0
 26 27  1  0  0  0  0
 26 54  1  0  0  0  0
 27 55  1  0  0  0  0
 28 34  1  0  0  0  0
 28 56  1  0  0  0  0
 29 57  1  0  0  0  0
 30 58  1  0  0  0  0
 30 59  1  0  0  0  0
 31 32  1  0  0  0  0
 31 60  1  0  0  0  0
 32 35  1  0  0  0  0
 32 61  1  0  0  0  0
 33 36  1  0  0  0  0
 33 62  1  0  0  0  0
 34 63  1  0  0  0  0
 34 64  1  0  0  0  0
 35 37  1  0  0  0  0
 35 65  1  0  0  0  0
 36 38  1  0  0  0  0
 36 66  1  0  0  0  0
 37 40  1  0  0  0  0
 37 67  1  0  0  0  0
 38 39  1  0  0  0  0
 38 68  1  0  0  0  0
 39 41  1  0  0  0  0
 39 69  1  0  0  0  0
 40 70  1  0  0  0  0
 40 71  1  0  0  0  0
 41 72  1  0  0  0  0
 41 73  1  0  0  0  0
 42 46  1  0  0  0  0
 43 47  1  0  0  0  0
 44 48  1  0  0  0  0
 45 49  1  0  0  0  0
 46 80  1  0  0  0  0
 46 81  1  0  0  0  0
 46 82  1  0  0  0  0
 47 83  1  0  0  0  0
 47 84  1  0  0  0  0
 47 85  1  0  0  0  0
 48 86  1  0  0  0  0
 48 87  1  0  0  0  0
 48 88  1  0  0  0  0
 49 89  1  0  0  0  0
 49 90  1  0  0  0  0
 49 91  1  0  0  0  0
M  END
> <PUBCHEM_COMPOUND_CID>
91854701

> <PUBCHEM_COMPOUND_CANONICALIZED>
1

> <PUBCHEM_CACTVS_COMPLEXITY>
1150

> <PUBCHEM_CACTVS_HBOND_ACCEPTOR>
21

> <PUBCHEM_CACTVS_HBOND_DONOR>
6

> <PUBCHEM_CACTVS_ROTATABLE_BOND>
14

> <PUBCHEM_CACTVS_SUBSKEYS>
AAADcfB4PgAAAAAAAAAAAAAAAAAAAAAAAAAkSJEgAAAAAAAAAAAAGgAACAAACBSwgAMCCAAABgAIAACQCAAAAAAAAAAAAAAAAAAREAIAAAAiQAAFAAAHAADAIAgAAAAAAAAAAAAAAAAAAAAAAAAAAAAAAA==

> <PUBCHEM_IUPAC_OPENEYE_NAME>
[(3S,4R,5R,6S)-6-[(2R,3R,4S,5R)-4-[(2S,3R,4R,5R)-3,4-dihydroxy-5-[(2S,3R,4S,5S)-3,4,5-triacetoxytetrahydropyran-2-yl]oxy-tetrahydropyran-2-yl]oxy-2,5-dihydroxy-tetrahydropyran-3-yl]oxy-4,5-dihydroxy-tetrahydropyran-3-yl] acetate

> <PUBCHEM_IUPAC_CAS_NAME>
acetic acid [(3S,4R,5R,6S)-6-[[(2R,3R,4S,5R)-4-[[(2S,3R,4R,5R)-3,4-dihydroxy-5-[[(2S,3R,4S,5S)-3,4,5-triacetyloxy-2-oxanyl]oxy]-2-oxanyl]oxy]-2,5-dihydroxy-3-oxanyl]oxy]-4,5-dihydroxy-3-oxanyl] ester

> <PUBCHEM_IUPAC_NAME_MARKUP>
[(3<I>S</I>,4<I>R</I>,5<I>R</I>,6<I>S</I>)-6-[(2<I>R</I>,3<I>R</I>,4<I>S</I>,5<I>R</I>)-4-[(2<I>S</I>,3<I>R</I>,4<I>R</I>,5<I>R</I>)-3,4-dihydroxy-5-[(2<I>S</I>,3<I>R</I>,4<I>S</I>,5<I>S</I>)-3,4,5-triacetyloxyoxan-2-yl]oxyoxan-2-yl]oxy-2,5-dihydroxyoxan-3-yl]oxy-4,5-dihydroxyoxan-3-yl] acetate

> <PUBCHEM_IUPAC_NAME>
[(3S,4R,5R,6S)-6-[(2R,3R,4S,5R)-4-[(2S,3R,4R,5R)-3,4-dihydroxy-5-[(2S,3R,4S,5S)-3,4,5-triacetyloxyoxan-2-yl]oxyoxan-2-yl]oxy-2,5-dihydroxyoxan-3-yl]oxy-4,5-dihydroxyoxan-3-yl] acetate

> <PUBCHEM_IUPAC_SYSTEMATIC_NAME>
[(3S,4R,5R,6S)-6-[(2R,3R,4S,5R)-4-[(2S,3R,4R,5R)-3,4-bis(oxidanyl)-5-[(2S,3R,4S,5S)-3,4,5-triacetyloxyoxan-2-yl]oxy-oxan-2-yl]oxy-2,5-bis(oxidanyl)oxan-3-yl]oxy-4,5-bis(oxidanyl)oxan-3-yl] ethanoate

> <PUBCHEM_IUPAC_TRADITIONAL_NAME>
acetic acid [(3S,4R,5R,6S)-6-[(2R,3R,4S,5R)-4-[(2S,3R,4R,5R)-3,4-dihydroxy-5-[(2S,3R,4S,5S)-3,4,5-triacetoxytetrahydropyran-2-yl]oxy-tetrahydropyran-2-yl]oxy-2,5-dihydroxy-tetrahydropyran-3-yl]oxy-4,5-dihydroxy-tetrahydropyran-3-yl] ester

> <PUBCHEM_IUPAC_INCHI>
InChI=1S/C28H42O21/c1-9(29)43-14-6-40-27(19(36)17(14)34)49-23-21(13(33)5-39-25(23)38)48-26-20(37)18(35)15(7-41-26)47-28-24(46-12(4)32)22(45-11(3)31)16(8-42-28)44-10(2)30/h13-28,33-38H,5-8H2,1-4H3/t13-,14+,15-,16+,17+,18+,19-,20-,21+,22+,23-,24-,25-,26+,27+,28+/m1/s1

> <PUBCHEM_IUPAC_INCHIKEY>
UCQRZOQYWYEAGQ-CMDDNFASSA-N

> <PUBCHEM_XLOGP3_AA>
-4.8

> <PUBCHEM_EXACT_MASS>
714.22185834

> <PUBCHEM_MOLECULAR_FORMULA>
C28H42O21

> <PUBCHEM_MOLECULAR_WEIGHT>
714.6

> <PUBCHEM_OPENEYE_CAN_SMILES>
CC(=O)OC1COC(C(C1O)O)OC2C(C(COC2O)O)OC3C(C(C(CO3)OC4C(C(C(CO4)OC(=O)C)OC(=O)C)OC(=O)C)O)O

> <PUBCHEM_OPENEYE_ISO_SMILES>
CC(=O)O[C@H]1CO[C@H]([C@@H]([C@H]1O)O)O[C@@H]2[C@H]([C@@H](CO[C@H]2O)O)O[C@H]3[C@@H]([C@H]([C@@H](CO3)O[C@H]4[C@@H]([C@H]([C@H](CO4)OC(=O)C)OC(=O)C)OC(=O)C)O)O

> <PUBCHEM_CACTVS_TPSA>
291

> <PUBCHEM_MONOISOTOPIC_WEIGHT>
714.22185834

> <PUBCHEM_TOTAL_CHARGE>
0

> <PUBCHEM_HEAVY_ATOM_COUNT>
49

> <PUBCHEM_ATOM_DEF_STEREO_COUNT>
16

> <PUBCHEM_ATOM_UDEF_STEREO_COUNT>
0

> <PUBCHEM_BOND_DEF_STEREO_COUNT>
0

> <PUBCHEM_BOND_UDEF_STEREO_COUNT>
0

> <PUBCHEM_ISOTOPIC_ATOM_COUNT>
0

> <PUBCHEM_COMPONENT_COUNT>
1

> <PUBCHEM_CACTVS_TAUTO_COUNT>
-1

> <PUBCHEM_COORDINATE_TYPE>
1
5
255

> <PUBCHEM_BONDANNOTATIONS>
22  1  5
26  1  6
28  10  6
32  11  5
29  12  5
35  13  6
37  14  6
36  15  6
38  16  5
39  17  5
23  2  6
33  2  5
24  4  5
31  4  6
25  8  6
27  9  5

$$$$
