 
  -OEChem-10192103522D

 77 81  0     0  0  0  0  0  0999 V2000
   12.4939   -1.0041    0.0000 S   0  0  0  0  0  0  0  0  0  0  0  0
    6.4103   -0.9428    0.0000 S   0  0  0  0  0  0  0  0  0  0  0  0
    6.0531    2.3614    0.0000 O   0  0  0  0  0  0  0  0  0  0  0  0
   12.4939   -2.0041    0.0000 O   0  0  0  0  0  0  0  0  0  0  0  0
   12.4939   -0.0041    0.0000 O   0  0  0  0  0  0  0  0  0  0  0  0
   16.9939   -1.8702    0.0000 O   0  0  0  0  0  0  0  0  0  0  0  0
    2.8660   -2.1381    0.0000 O   0  0  0  0  0  0  0  0  0  0  0  0
   16.9939   -0.1381    0.0000 O   0  0  0  0  0  0  0  0  0  0  0  0
    7.9939   -1.8702    0.0000 O   0  0  0  0  0  0  0  0  0  0  0  0
    7.6995    1.8234    0.0000 N   0  0  0  0  0  0  0  0  0  0  0  0
   13.4939   -1.0041    0.0000 N   0  0  0  0  0  0  0  0  0  0  0  0
    3.7320   -0.6381    0.0000 N   0  0  0  0  0  0  0  0  0  0  0  0
   15.4939   -1.0041    0.0000 N   0  0  0  0  0  0  0  0  0  0  0  0
    7.9939   -0.1381    0.0000 N   0  0  0  0  0  0  0  0  0  0  0  0
    8.4415    1.1529    0.0000 C   0  0  0  0  0  0  0  0  0  0  0  0
    8.1078    2.7362    0.0000 C   0  0  0  0  0  0  0  0  0  0  0  0
    9.3084    1.6514    0.0000 C   0  0  0  0  0  0  0  0  0  0  0  0
    9.1022    2.6299    0.0000 C   0  0  0  0  0  0  0  0  0  0  0  0
    5.4641    0.3619    0.0000 C   0  0  0  0  0  0  0  0  0  0  0  0
    6.4103    0.6666    0.0000 C   0  0  0  0  0  0  0  0  0  0  0  0
    4.5981    0.8619    0.0000 C   0  0  0  0  0  0  0  0  0  0  0  0
    5.4641   -0.6381    0.0000 C   0  0  0  0  0  0  0  0  0  0  0  0
    6.7210    1.6171    0.0000 C   0  0  0  0  0  0  0  0  0  0  0  0
    3.7320    0.3619    0.0000 C   0  0  0  0  0  0  0  0  0  0  0  0
    4.5981   -1.1381    0.0000 C   0  0  0  0  0  0  0  0  0  0  0  0
   13.9939   -1.8702    0.0000 C   0  0  0  0  0  0  0  0  0  0  0  0
   13.9939   -0.1381    0.0000 C   0  0  0  0  0  0  0  0  0  0  0  0
   14.9939   -1.8702    0.0000 C   0  0  0  0  0  0  0  0  0  0  0  0
   14.9939   -0.1381    0.0000 C   0  0  0  0  0  0  0  0  0  0  0  0
    6.9939   -0.1381    0.0000 C   0  0  0  0  0  0  0  0  0  0  0  0
   11.4939   -1.0041    0.0000 C   0  0  0  0  0  0  0  0  0  0  0  0
    2.8660   -1.1381    0.0000 C   0  0  0  0  0  0  0  0  0  0  0  0
   16.4939   -1.0041    0.0000 C   0  0  0  0  0  0  0  0  0  0  0  0
    8.4939   -1.0041    0.0000 C   0  0  0  0  0  0  0  0  0  0  0  0
   10.9939   -1.8702    0.0000 C   0  0  0  0  0  0  0  0  0  0  0  0
   10.9939   -0.1381    0.0000 C   0  0  0  0  0  0  0  0  0  0  0  0
    9.4939   -1.0041    0.0000 C   0  0  0  0  0  0  0  0  0  0  0  0
    2.0000   -0.6381    0.0000 C   0  0  0  0  0  0  0  0  0  0  0  0
    9.9939   -1.8702    0.0000 C   0  0  0  0  0  0  0  0  0  0  0  0
    9.9939   -0.1381    0.0000 C   0  0  0  0  0  0  0  0  0  0  0  0
   17.9939   -1.8702    0.0000 C   0  0  0  0  0  0  0  0  0  0  0  0
   18.4939   -2.7362    0.0000 C   0  0  0  0  0  0  0  0  0  0  0  0
    7.9800    0.7389    0.0000 H   0  0  0  0  0  0  0  0  0  0  0  0
    8.8050    0.6507    0.0000 H   0  0  0  0  0  0  0  0  0  0  0  0
    8.2378    3.3424    0.0000 H   0  0  0  0  0  0  0  0  0  0  0  0
    7.5185    2.9288    0.0000 H   0  0  0  0  0  0  0  0  0  0  0  0
    9.5596    1.0846    0.0000 H   0  0  0  0  0  0  0  0  0  0  0  0
    9.8984    1.8420    0.0000 H   0  0  0  0  0  0  0  0  0  0  0  0
    9.7189    2.6937    0.0000 H   0  0  0  0  0  0  0  0  0  0  0  0
    9.1032    3.2499    0.0000 H   0  0  0  0  0  0  0  0  0  0  0  0
    4.9966    1.3368    0.0000 H   0  0  0  0  0  0  0  0  0  0  0  0
    4.1996    1.3368    0.0000 H   0  0  0  0  0  0  0  0  0  0  0  0
    3.5200    0.9445    0.0000 H   0  0  0  0  0  0  0  0  0  0  0  0
    3.1215    0.2542    0.0000 H   0  0  0  0  0  0  0  0  0  0  0  0
    4.1996   -1.6131    0.0000 H   0  0  0  0  0  0  0  0  0  0  0  0
    4.9966   -1.6131    0.0000 H   0  0  0  0  0  0  0  0  0  0  0  0
   13.4113   -2.0822    0.0000 H   0  0  0  0  0  0  0  0  0  0  0  0
   14.1016   -2.4808    0.0000 H   0  0  0  0  0  0  0  0  0  0  0  0
   14.1016    0.4725    0.0000 H   0  0  0  0  0  0  0  0  0  0  0  0
   13.4113    0.0739    0.0000 H   0  0  0  0  0  0  0  0  0  0  0  0
   14.8863   -2.4808    0.0000 H   0  0  0  0  0  0  0  0  0  0  0  0
   15.5765   -2.0822    0.0000 H   0  0  0  0  0  0  0  0  0  0  0  0
   15.5765    0.0739    0.0000 H   0  0  0  0  0  0  0  0  0  0  0  0
   14.8863    0.4725    0.0000 H   0  0  0  0  0  0  0  0  0  0  0  0
    8.3039    0.3988    0.0000 H   0  0  0  0  0  0  0  0  0  0  0  0
   11.3039   -2.4071    0.0000 H   0  0  0  0  0  0  0  0  0  0  0  0
   11.3039    0.3988    0.0000 H   0  0  0  0  0  0  0  0  0  0  0  0
    2.3100   -0.1012    0.0000 H   0  0  0  0  0  0  0  0  0  0  0  0
    1.4631   -0.3281    0.0000 H   0  0  0  0  0  0  0  0  0  0  0  0
    1.6900   -1.1750    0.0000 H   0  0  0  0  0  0  0  0  0  0  0  0
    9.6839   -2.4071    0.0000 H   0  0  0  0  0  0  0  0  0  0  0  0
    9.6839    0.3988    0.0000 H   0  0  0  0  0  0  0  0  0  0  0  0
   18.5765   -1.6581    0.0000 H   0  0  0  0  0  0  0  0  0  0  0  0
   17.8863   -1.2596    0.0000 H   0  0  0  0  0  0  0  0  0  0  0  0
   17.9570   -3.0462    0.0000 H   0  0  0  0  0  0  0  0  0  0  0  0
   18.8039   -3.2731    0.0000 H   0  0  0  0  0  0  0  0  0  0  0  0
   19.0309   -2.4262    0.0000 H   0  0  0  0  0  0  0  0  0  0  0  0
  1  4  2  0  0  0  0
  1  5  2  0  0  0  0
  1 11  1  0  0  0  0
  1 31  1  0  0  0  0
  2 22  1  0  0  0  0
  2 30  1  0  0  0  0
  3 23  2  0  0  0  0
  6 33  1  0  0  0  0
  6 41  1  0  0  0  0
  7 32  2  0  0  0  0
  8 33  2  0  0  0  0
  9 34  2  0  0  0  0
 10 15  1  0  0  0  0
 10 16  1  0  0  0  0
 10 23  1  0  0  0  0
 11 26  1  0  0  0  0
 11 27  1  0  0  0  0
 12 24  1  0  0  0  0
 12 25  1  0  0  0  0
 12 32  1  0  0  0  0
 13 28  1  0  0  0  0
 13 29  1  0  0  0  0
 13 33  1  0  0  0  0
 14 30  1  0  0  0  0
 14 34  1  0  0  0  0
 14 65  1  0  0  0  0
 15 17  1  0  0  0  0
 15 43  1  0  0  0  0
 15 44  1  0  0  0  0
 16 18  1  0  0  0  0
 16 45  1  0  0  0  0
 16 46  1  0  0  0  0
 17 18  1  0  0  0  0
 17 47  1  0  0  0  0
 17 48  1  0  0  0  0
 18 49  1  0  0  0  0
 18 50  1  0  0  0  0
 19 20  1  0  0  0  0
 19 21  1  0  0  0  0
 19 22  2  0  0  0  0
 20 23  1  0  0  0  0
 20 30  2  0  0  0  0
 21 24  1  0  0  0  0
 21 51  1  0  0  0  0
 21 52  1  0  0  0  0
 22 25  1  0  0  0  0
 24 53  1  0  0  0  0
 24 54  1  0  0  0  0
 25 55  1  0  0  0  0
 25 56  1  0  0  0  0
 26 28  1  0  0  0  0
 26 57  1  0  0  0  0
 26 58  1  0  0  0  0
 27 29  1  0  0  0  0
 27 59  1  0  0  0  0
 27 60  1  0  0  0  0
 28 61  1  0  0  0  0
 28 62  1  0  0  0  0
 29 63  1  0  0  0  0
 29 64  1  0  0  0  0
 31 35  2  0  0  0  0
 31 36  1  0  0  0  0
 32 38  1  0  0  0  0
 34 37  1  0  0  0  0
 35 39  1  0  0  0  0
 35 66  1  0  0  0  0
 36 40  2  0  0  0  0
 36 67  1  0  0  0  0
 37 39  2  0  0  0  0
 37 40  1  0  0  0  0
 38 68  1  0  0  0  0
 38 69  1  0  0  0  0
 38 70  1  0  0  0  0
 39 71  1  0  0  0  0
 40 72  1  0  0  0  0
 41 42  1  0  0  0  0
 41 73  1  0  0  0  0
 41 74  1  0  0  0  0
 42 75  1  0  0  0  0
 42 76  1  0  0  0  0
 42 77  1  0  0  0  0
M  END
> <PUBCHEM_COMPOUND_CID>
23827764

> <PUBCHEM_COMPOUND_CANONICALIZED>
1

> <PUBCHEM_CACTVS_COMPLEXITY>
1130

> <PUBCHEM_CACTVS_HBOND_ACCEPTOR>
9

> <PUBCHEM_CACTVS_HBOND_DONOR>
1

> <PUBCHEM_CACTVS_ROTATABLE_BOND>
7

> <PUBCHEM_CACTVS_SUBSKEYS>
AAADcfB7uABgAAAAAAAAAAAAAAAAAWJAAAA8WIAAAAAAAFgBwAAAHgQQQAAADADh2AYyiYPABAqMAiFSWHDDAJBlCBkIiBkIRMgIYDrg1ZGcIYhghgDoyccYiQCOkAAAAAAAAAAgAAAAAAAAAAAAAAAAAA==

> <PUBCHEM_IUPAC_OPENEYE_NAME>
ethyl 4-[4-[[6-acetyl-3-(pyrrolidine-1-carbonyl)-5,7-dihydro-4H-thieno[2,3-c]pyridin-2-yl]carbamoyl]phenyl]sulfonylpiperazine-1-carboxylate

> <PUBCHEM_IUPAC_CAS_NAME>
4-[4-[[[6-acetyl-3-[oxo(1-pyrrolidinyl)methyl]-5,7-dihydro-4H-thieno[2,3-c]pyridin-2-yl]amino]-oxomethyl]phenyl]sulfonyl-1-piperazinecarboxylic acid ethyl ester

> <PUBCHEM_IUPAC_NAME_MARKUP>
ethyl 4-[4-[[6-acetyl-3-(pyrrolidine-1-carbonyl)-5,7-dihydro-4<I>H</I>-thieno[2,3-c]pyridin-2-yl]carbamoyl]phenyl]sulfonylpiperazine-1-carboxylate

> <PUBCHEM_IUPAC_NAME>
ethyl 4-[4-[[6-acetyl-3-(pyrrolidine-1-carbonyl)-5,7-dihydro-4H-thieno[2,3-c]pyridin-2-yl]carbamoyl]phenyl]sulfonylpiperazine-1-carboxylate

> <PUBCHEM_IUPAC_SYSTEMATIC_NAME>
ethyl 4-[4-[(6-ethanoyl-3-pyrrolidin-1-ylcarbonyl-5,7-dihydro-4H-thieno[2,3-c]pyridin-2-yl)carbamoyl]phenyl]sulfonylpiperazine-1-carboxylate

> <PUBCHEM_IUPAC_TRADITIONAL_NAME>
4-[4-[[6-acetyl-3-(pyrrolidine-1-carbonyl)-5,7-dihydro-4H-thieno[2,3-c]pyridin-2-yl]carbamoyl]phenyl]sulfonylpiperazine-1-carboxylic acid ethyl ester

> <PUBCHEM_IUPAC_INCHI>
InChI=1S/C28H35N5O7S2/c1-3-40-28(37)31-14-16-33(17-15-31)42(38,39)21-8-6-20(7-9-21)25(35)29-26-24(27(36)30-11-4-5-12-30)22-10-13-32(19(2)34)18-23(22)41-26/h6-9H,3-5,10-18H2,1-2H3,(H,29,35)

> <PUBCHEM_IUPAC_INCHIKEY>
KHMIAWOVMCRMDV-UHFFFAOYSA-N

> <PUBCHEM_XLOGP3_AA>
1.8

> <PUBCHEM_EXACT_MASS>
617.19779082

> <PUBCHEM_MOLECULAR_FORMULA>
C28H35N5O7S2

> <PUBCHEM_MOLECULAR_WEIGHT>
617.7

> <PUBCHEM_OPENEYE_CAN_SMILES>
CCOC(=O)N1CCN(CC1)S(=O)(=O)C2=CC=C(C=C2)C(=O)NC3=C(C4=C(S3)CN(CC4)C(=O)C)C(=O)N5CCCC5

> <PUBCHEM_OPENEYE_ISO_SMILES>
CCOC(=O)N1CCN(CC1)S(=O)(=O)C2=CC=C(C=C2)C(=O)NC3=C(C4=C(S3)CN(CC4)C(=O)C)C(=O)N5CCCC5

> <PUBCHEM_CACTVS_TPSA>
173

> <PUBCHEM_MONOISOTOPIC_WEIGHT>
617.19779082

> <PUBCHEM_TOTAL_CHARGE>
0

> <PUBCHEM_HEAVY_ATOM_COUNT>
42

> <PUBCHEM_ATOM_DEF_STEREO_COUNT>
0

> <PUBCHEM_ATOM_UDEF_STEREO_COUNT>
0

> <PUBCHEM_BOND_DEF_STEREO_COUNT>
0

> <PUBCHEM_BOND_UDEF_STEREO_COUNT>
0

> <PUBCHEM_ISOTOPIC_ATOM_COUNT>
0

> <PUBCHEM_COMPONENT_COUNT>
1

> <PUBCHEM_CACTVS_TAUTO_COUNT>
-1

> <PUBCHEM_COORDINATE_TYPE>
1
5
255

> <PUBCHEM_BONDANNOTATIONS>
19  20  8
19  22  8
2  22  8
2  30  8
20  30  8
31  35  8
31  36  8
35  39  8
36  40  8
37  39  8
37  40  8

$$$$
