 
  -OEChem-10192103392D

 45 47  0     1  0  0  0  0  0999 V2000
    5.9019   -0.5090    0.0000 O   0  0  0  0  0  0  0  0  0  0  0  0
    3.0106    1.1465    0.0000 O   0  0  0  0  0  0  0  0  0  0  0  0
    2.5896   -0.1489    0.0000 O   0  0  0  0  0  0  0  0  0  0  0  0
    3.3608   -4.0968    0.0000 O   0  0  0  0  0  0  0  0  0  0  0  0
    6.8076    3.2872    0.0000 O   0  0  0  0  0  0  0  0  0  0  0  0
    5.0929   -5.0968    0.0000 O   0  0  0  0  0  0  0  0  0  0  0  0
    5.6320    4.9052    0.0000 O   0  0  0  0  0  0  0  0  0  0  0  0
    4.5929    0.4420    0.0000 C   0  0  2  0  0  0  0  0  0  0  0  0
    4.2839   -0.5090    0.0000 C   0  0  1  0  0  0  0  0  0  0  0  0
    5.0929   -1.0968    0.0000 C   0  0  1  0  0  0  0  0  0  0  0  0
    5.5929    0.4420    0.0000 C   0  0  0  0  0  0  0  0  0  0  0  0
    4.0051    1.2510    0.0000 C   0  0  1  0  0  0  0  0  0  0  0  0
    3.3328   -0.8180    0.0000 C   0  0  0  0  0  0  0  0  0  0  0  0
    5.0929   -2.0968    0.0000 C   0  0  0  0  0  0  0  0  0  0  0  0
    4.4118    2.1646    0.0000 C   0  0  0  0  0  0  0  0  0  0  0  0
    4.2268   -2.5968    0.0000 C   0  0  0  0  0  0  0  0  0  0  0  0
    5.9589   -2.5968    0.0000 C   0  0  0  0  0  0  0  0  0  0  0  0
    5.4064    2.2691    0.0000 C   0  0  0  0  0  0  0  0  0  0  0  0
    3.8240    2.9736    0.0000 C   0  0  0  0  0  0  0  0  0  0  0  0
    4.2268   -3.5968    0.0000 C   0  0  0  0  0  0  0  0  0  0  0  0
    5.9589   -3.5968    0.0000 C   0  0  0  0  0  0  0  0  0  0  0  0
    5.8131    3.1827    0.0000 C   0  0  0  0  0  0  0  0  0  0  0  0
    5.0929   -4.0968    0.0000 C   0  0  0  0  0  0  0  0  0  0  0  0
    4.2308    3.8872    0.0000 C   0  0  0  0  0  0  0  0  0  0  0  0
    5.2253    3.9917    0.0000 C   0  0  0  0  0  0  0  0  0  0  0  0
    4.9788    1.1994    0.0000 H   0  0  0  0  0  0  0  0  0  0  0  0
    4.1869   -1.1214    0.0000 H   0  0  0  0  0  0  0  0  0  0  0  0
    5.6453   -1.3783    0.0000 H   0  0  0  0  0  0  0  0  0  0  0  0
    6.1993    0.5709    0.0000 H   0  0  0  0  0  0  0  0  0  0  0  0
    5.5281    1.0586    0.0000 H   0  0  0  0  0  0  0  0  0  0  0  0
    3.7529    0.6846    0.0000 H   0  0  0  0  0  0  0  0  0  0  0  0
    2.8442   -1.1998    0.0000 H   0  0  0  0  0  0  0  0  0  0  0  0
    3.6239   -1.3655    0.0000 H   0  0  0  0  0  0  0  0  0  0  0  0
    2.6461    1.6481    0.0000 H   0  0  0  0  0  0  0  0  0  0  0  0
    3.6899   -2.2868    0.0000 H   0  0  0  0  0  0  0  0  0  0  0  0
    6.4958   -2.2868    0.0000 H   0  0  0  0  0  0  0  0  0  0  0  0
    2.0000   -0.3405    0.0000 H   0  0  0  0  0  0  0  0  0  0  0  0
    5.7708    1.7675    0.0000 H   0  0  0  0  0  0  0  0  0  0  0  0
    3.2074    2.9088    0.0000 H   0  0  0  0  0  0  0  0  0  0  0  0
    6.4958   -3.9068    0.0000 H   0  0  0  0  0  0  0  0  0  0  0  0
    3.8664    4.3887    0.0000 H   0  0  0  0  0  0  0  0  0  0  0  0
    2.8239   -3.7868    0.0000 H   0  0  0  0  0  0  0  0  0  0  0  0
    7.0598    3.8536    0.0000 H   0  0  0  0  0  0  0  0  0  0  0  0
    5.6298   -5.4068    0.0000 H   0  0  0  0  0  0  0  0  0  0  0  0
    5.2676    5.4068    0.0000 H   0  0  0  0  0  0  0  0  0  0  0  0
  1 10  1  0  0  0  0
  1 11  1  0  0  0  0
 12  2  1  6  0  0  0
  2 34  1  0  0  0  0
  3 13  1  0  0  0  0
  3 37  1  0  0  0  0
  4 20  1  0  0  0  0
  4 42  1  0  0  0  0
  5 22  1  0  0  0  0
  5 43  1  0  0  0  0
  6 23  1  0  0  0  0
  6 44  1  0  0  0  0
  7 25  1  0  0  0  0
  7 45  1  0  0  0  0
  8  9  1  0  0  0  0
  8 11  1  0  0  0  0
  8 12  1  0  0  0  0
  8 26  1  6  0  0  0
  9 10  1  0  0  0  0
  9 13  1  1  0  0  0
  9 27  1  0  0  0  0
 10 14  1  6  0  0  0
 10 28  1  0  0  0  0
 11 29  1  0  0  0  0
 11 30  1  0  0  0  0
 12 15  1  0  0  0  0
 12 31  1  0  0  0  0
 13 32  1  0  0  0  0
 13 33  1  0  0  0  0
 14 16  2  0  0  0  0
 14 17  1  0  0  0  0
 15 18  2  0  0  0  0
 15 19  1  0  0  0  0
 16 20  1  0  0  0  0
 16 35  1  0  0  0  0
 17 21  2  0  0  0  0
 17 36  1  0  0  0  0
 18 22  1  0  0  0  0
 18 38  1  0  0  0  0
 19 24  2  0  0  0  0
 19 39  1  0  0  0  0
 20 23  2  0  0  0  0
 21 23  1  0  0  0  0
 21 40  1  0  0  0  0
 22 25  2  0  0  0  0
 24 25  1  0  0  0  0
 24 41  1  0  0  0  0
M  END
> <PUBCHEM_COMPOUND_CID>
16681477

> <PUBCHEM_COMPOUND_CANONICALIZED>
1

> <PUBCHEM_CACTVS_COMPLEXITY>
434

> <PUBCHEM_CACTVS_HBOND_ACCEPTOR>
7

> <PUBCHEM_CACTVS_HBOND_DONOR>
6

> <PUBCHEM_CACTVS_ROTATABLE_BOND>
4

> <PUBCHEM_CACTVS_SUBSKEYS>
AAADceB4OAAAAAAAAAAAAAAAAAAAASAAAAAwYAAAAAAAAAABQAAAGgAACAAADRSgmAIwBoAABgCAAiBCAAACAAAgIAAIiAAGiIgJNiKCMRqCcAElwBEJuAfA4PwOoAABAAAAQABAAAIAAACAAAAAAAAAAA==

> <PUBCHEM_IUPAC_OPENEYE_NAME>
4-[(2S,3R,4R)-4-[(S)-(3,4-dihydroxyphenyl)-hydroxy-methyl]-3-(hydroxymethyl)tetrahydrofuran-2-yl]benzene-1,2-diol

> <PUBCHEM_IUPAC_CAS_NAME>
4-[(2S,3R,4R)-4-[(S)-(3,4-dihydroxyphenyl)-hydroxymethyl]-3-(hydroxymethyl)-2-oxolanyl]benzene-1,2-diol

> <PUBCHEM_IUPAC_NAME_MARKUP>
4-[(2<I>S</I>,3<I>R</I>,4<I>R</I>)-4-[(<I>S</I>)-(3,4-dihydroxyphenyl)-hydroxymethyl]-3-(hydroxymethyl)oxolan-2-yl]benzene-1,2-diol

> <PUBCHEM_IUPAC_NAME>
4-[(2S,3R,4R)-4-[(S)-(3,4-dihydroxyphenyl)-hydroxymethyl]-3-(hydroxymethyl)oxolan-2-yl]benzene-1,2-diol

> <PUBCHEM_IUPAC_SYSTEMATIC_NAME>
4-[(2S,3R,4R)-4-[(S)-[3,4-bis(oxidanyl)phenyl]-oxidanyl-methyl]-3-(hydroxymethyl)oxolan-2-yl]benzene-1,2-diol

> <PUBCHEM_IUPAC_TRADITIONAL_NAME>
4-[(2S,3R,4R)-4-[(S)-(3,4-dihydroxyphenyl)-hydroxy-methyl]-3-methylol-tetrahydrofuran-2-yl]pyrocatechol

> <PUBCHEM_IUPAC_INCHI>
InChI=1S/C18H20O7/c19-7-11-12(17(24)9-1-3-13(20)15(22)5-9)8-25-18(11)10-2-4-14(21)16(23)6-10/h1-6,11-12,17-24H,7-8H2/t11-,12-,17+,18+/m0/s1

> <PUBCHEM_IUPAC_INCHIKEY>
XRDXBFUYROIFCX-YDOWWZDFSA-N

> <PUBCHEM_XLOGP3_AA>
0.6

> <PUBCHEM_EXACT_MASS>
348.12090297

> <PUBCHEM_MOLECULAR_FORMULA>
C18H20O7

> <PUBCHEM_MOLECULAR_WEIGHT>
348.3

> <PUBCHEM_OPENEYE_CAN_SMILES>
C1C(C(C(O1)C2=CC(=C(C=C2)O)O)CO)C(C3=CC(=C(C=C3)O)O)O

> <PUBCHEM_OPENEYE_ISO_SMILES>
C1[C@@H]([C@@H]([C@H](O1)C2=CC(=C(C=C2)O)O)CO)[C@@H](C3=CC(=C(C=C3)O)O)O

> <PUBCHEM_CACTVS_TPSA>
131

> <PUBCHEM_MONOISOTOPIC_WEIGHT>
348.12090297

> <PUBCHEM_TOTAL_CHARGE>
0

> <PUBCHEM_HEAVY_ATOM_COUNT>
25

> <PUBCHEM_ATOM_DEF_STEREO_COUNT>
4

> <PUBCHEM_ATOM_UDEF_STEREO_COUNT>
0

> <PUBCHEM_BOND_DEF_STEREO_COUNT>
0

> <PUBCHEM_BOND_UDEF_STEREO_COUNT>
0

> <PUBCHEM_ISOTOPIC_ATOM_COUNT>
0

> <PUBCHEM_COMPONENT_COUNT>
1

> <PUBCHEM_CACTVS_TAUTO_COUNT>
-1

> <PUBCHEM_COORDINATE_TYPE>
1
5
255

> <PUBCHEM_BONDANNOTATIONS>
10  14  6
14  16  8
14  17  8
15  18  8
15  19  8
16  20  8
17  21  8
18  22  8
19  24  8
12  2  6
20  23  8
21  23  8
22  25  8
24  25  8
8  26  6
9  13  5

$$$$
