 
  -OEChem-10192104412D

 27 27  0     1  0  0  0  0  0999 V2000
    4.2268    2.3215    0.0000 O   0  0  0  0  0  0  0  0  0  0  0  0
    5.7739   -2.4399    0.0000 O   0  0  0  0  0  0  0  0  0  0  0  0
    2.5896   -0.1264    0.0000 O   0  0  0  0  0  0  0  0  0  0  0  0
    5.9589    2.3215    0.0000 O   0  0  0  0  0  0  0  0  0  0  0  0
    7.1752   -1.4218    0.0000 O   0  0  0  0  0  0  0  0  0  0  0  0
    3.1249    1.5209    0.0000 O   0  0  0  0  0  0  0  0  0  0  0  0
    5.9019    0.2337    0.0000 C   0  0  3  0  0  0  0  0  0  0  0  0
    5.0929    0.8215    0.0000 C   0  0  3  0  0  0  0  0  0  0  0  0
    5.5929   -0.7173    0.0000 C   0  0  3  0  0  0  0  0  0  0  0  0
    4.2839    0.2337    0.0000 C   0  0  3  0  0  0  0  0  0  0  0  0
    4.5929   -0.7173    0.0000 C   0  0  0  0  0  0  0  0  0  0  0  0
    6.8530    0.5427    0.0000 C   0  0  0  0  0  0  0  0  0  0  0  0
    5.0929    1.8215    0.0000 C   0  0  0  0  0  0  0  0  0  0  0  0
    6.1807   -1.5264    0.0000 C   0  0  0  0  0  0  0  0  0  0  0  0
    3.3328    0.5427    0.0000 C   0  0  0  0  0  0  0  0  0  0  0  0
    5.9989    0.8461    0.0000 H   0  0  0  0  0  0  0  0  0  0  0  0
    5.6453    1.1030    0.0000 H   0  0  0  0  0  0  0  0  0  0  0  0
    6.2052   -0.6204    0.0000 H   0  0  0  0  0  0  0  0  0  0  0  0
    3.8454   -0.2047    0.0000 H   0  0  0  0  0  0  0  0  0  0  0  0
    3.9864   -0.8462    0.0000 H   0  0  0  0  0  0  0  0  0  0  0  0
    4.6577   -1.3340    0.0000 H   0  0  0  0  0  0  0  0  0  0  0  0
    7.0445   -0.0469    0.0000 H   0  0  0  0  0  0  0  0  0  0  0  0
    7.4426    0.7343    0.0000 H   0  0  0  0  0  0  0  0  0  0  0  0
    6.6614    1.1324    0.0000 H   0  0  0  0  0  0  0  0  0  0  0  0
    4.2268    2.9415    0.0000 H   0  0  0  0  0  0  0  0  0  0  0  0
    6.1384   -2.9415    0.0000 H   0  0  0  0  0  0  0  0  0  0  0  0
    2.0000    0.0652    0.0000 H   0  0  0  0  0  0  0  0  0  0  0  0
  1 13  1  0  0  0  0
  1 25  1  0  0  0  0
  2 14  1  0  0  0  0
  2 26  1  0  0  0  0
  3 15  1  0  0  0  0
  3 27  1  0  0  0  0
  4 13  2  0  0  0  0
  5 14  2  0  0  0  0
  6 15  2  0  0  0  0
  7  8  1  0  0  0  0
  7  9  1  0  0  0  0
  7 12  1  0  0  0  0
  7 16  1  0  0  0  0
  8 10  1  0  0  0  0
  8 13  1  0  0  0  0
  8 17  1  0  0  0  0
  9 11  1  0  0  0  0
  9 14  1  0  0  0  0
  9 18  1  0  0  0  0
 10 11  1  0  0  0  0
 10 15  1  0  0  0  0
 10 19  1  0  0  0  0
 11 20  1  0  0  0  0
 11 21  1  0  0  0  0
 12 22  1  0  0  0  0
 12 23  1  0  0  0  0
 12 24  1  0  0  0  0
M  END
> <PUBCHEM_COMPOUND_CID>
19427578

> <PUBCHEM_COMPOUND_CANONICALIZED>
1

> <PUBCHEM_CACTVS_COMPLEXITY>
310

> <PUBCHEM_CACTVS_HBOND_ACCEPTOR>
6

> <PUBCHEM_CACTVS_HBOND_DONOR>
3

> <PUBCHEM_CACTVS_ROTATABLE_BOND>
3

> <PUBCHEM_CACTVS_SUBSKEYS>
AAADccBwOAAAAAAAAAAAAAAAAAAAAYAAAAAAAAAAAAAAAAAAAAAAGgAACAAADQCAgAACCAAAAgAIAACQCAAAAAAAAAAAAAEAAAAAABIAAAAAQAAEAAAAAAHL7jCOgAAAAAAAAAAAAAAAAAAAAQAACAAAAA==

> <PUBCHEM_IUPAC_OPENEYE_NAME>
3-methylcyclopentane-1,2,4-tricarboxylic acid

> <PUBCHEM_IUPAC_CAS_NAME>
3-methylcyclopentane-1,2,4-tricarboxylic acid

> <PUBCHEM_IUPAC_NAME_MARKUP>
3-methylcyclopentane-1,2,4-tricarboxylic acid

> <PUBCHEM_IUPAC_NAME>
3-methylcyclopentane-1,2,4-tricarboxylic acid

> <PUBCHEM_IUPAC_SYSTEMATIC_NAME>
3-methylcyclopentane-1,2,4-tricarboxylic acid

> <PUBCHEM_IUPAC_TRADITIONAL_NAME>
3-methylcyclopentane-1,2,4-tricarboxylic acid

> <PUBCHEM_IUPAC_INCHI>
InChI=1S/C9H12O6/c1-3-4(7(10)11)2-5(8(12)13)6(3)9(14)15/h3-6H,2H2,1H3,(H,10,11)(H,12,13)(H,14,15)

> <PUBCHEM_IUPAC_INCHIKEY>
WSTMKVCIZYFCNZ-UHFFFAOYSA-N

> <PUBCHEM_XLOGP3_AA>
-0.3

> <PUBCHEM_EXACT_MASS>
216.06338810

> <PUBCHEM_MOLECULAR_FORMULA>
C9H12O6

> <PUBCHEM_MOLECULAR_WEIGHT>
216.19

> <PUBCHEM_OPENEYE_CAN_SMILES>
CC1C(CC(C1C(=O)O)C(=O)O)C(=O)O

> <PUBCHEM_OPENEYE_ISO_SMILES>
CC1C(CC(C1C(=O)O)C(=O)O)C(=O)O

> <PUBCHEM_CACTVS_TPSA>
112

> <PUBCHEM_MONOISOTOPIC_WEIGHT>
216.06338810

> <PUBCHEM_TOTAL_CHARGE>
0

> <PUBCHEM_HEAVY_ATOM_COUNT>
15

> <PUBCHEM_ATOM_DEF_STEREO_COUNT>
0

> <PUBCHEM_ATOM_UDEF_STEREO_COUNT>
4

> <PUBCHEM_BOND_DEF_STEREO_COUNT>
0

> <PUBCHEM_BOND_UDEF_STEREO_COUNT>
0

> <PUBCHEM_ISOTOPIC_ATOM_COUNT>
0

> <PUBCHEM_COMPONENT_COUNT>
1

> <PUBCHEM_CACTVS_TAUTO_COUNT>
-1

> <PUBCHEM_COORDINATE_TYPE>
1
5
255

> <PUBCHEM_BONDANNOTATIONS>
10  15  3
7  12  3
8  13  3
9  14  3

$$$$
