 
  -OEChem-10192104172D

 33 36  0     1  0  0  0  0  0999 V2000
    4.5983   -3.2502    0.0000 O   0  0  0  0  0  0  0  0  0  0  0  0
    7.1967    1.2502    0.0000 O   0  0  0  0  0  0  0  0  0  0  0  0
    5.4641   -0.7498    0.0000 O   0  0  0  0  0  0  0  0  0  0  0  0
    3.7320   -0.7498    0.0000 O   0  0  0  0  0  0  0  0  0  0  0  0
    4.5981    0.7502    0.0000 O   0  0  0  0  0  0  0  0  0  0  0  0
    2.0000   -2.7498    0.0000 O   0  0  0  0  0  0  0  0  0  0  0  0
    5.4641    3.2502    0.0000 O   0  0  0  0  0  0  0  0  0  0  0  0
    4.5981   -2.2498    0.0000 C   0  0  3  0  0  0  0  0  0  0  0  0
    6.3301    0.7502    0.0000 C   0  0  3  0  0  0  0  0  0  0  0  0
    3.7320   -2.7498    0.0000 C   0  0  3  0  0  0  0  0  0  0  0  0
    6.3301    1.7502    0.0000 C   0  0  3  0  0  0  0  0  0  0  0  0
    4.5981   -1.2498    0.0000 C   0  0  3  0  0  0  0  0  0  0  0  0
    5.4641    0.2502    0.0000 C   0  0  3  0  0  0  0  0  0  0  0  0
    2.8660   -2.2498    0.0000 C   0  0  0  0  0  0  0  0  0  0  0  0
    5.4641    2.2502    0.0000 C   0  0  0  0  0  0  0  0  0  0  0  0
    2.8660   -1.2498    0.0000 C   0  0  3  0  0  0  0  0  0  0  0  0
    4.5981    1.7502    0.0000 C   0  0  3  0  0  0  0  0  0  0  0  0
    2.0000   -0.7498    0.0000 C   0  0  0  0  0  0  0  0  0  0  0  0
    3.7320    2.2502    0.0000 C   0  0  0  0  0  0  0  0  0  0  0  0
    5.2181   -2.2497    0.0000 H   0  0  0  0  0  0  0  0  0  0  0  0
    6.6401    0.2132    0.0000 H   0  0  0  0  0  0  0  0  0  0  0  0
    3.4220   -3.2867    0.0000 H   0  0  0  0  0  0  0  0  0  0  0  0
    6.6401    2.2872    0.0000 H   0  0  0  0  0  0  0  0  0  0  0  0
    4.5981   -0.6298    0.0000 H   0  0  0  0  0  0  0  0  0  0  0  0
    6.0010   -0.0598    0.0000 H   0  0  0  0  0  0  0  0  0  0  0  0
    2.8660   -0.6298    0.0000 H   0  0  0  0  0  0  0  0  0  0  0  0
    4.0611    1.4402    0.0000 H   0  0  0  0  0  0  0  0  0  0  0  0
    2.3100   -0.2128    0.0000 H   0  0  0  0  0  0  0  0  0  0  0  0
    1.4631   -0.4398    0.0000 H   0  0  0  0  0  0  0  0  0  0  0  0
    1.6900   -1.2867    0.0000 H   0  0  0  0  0  0  0  0  0  0  0  0
    4.0420    2.7872    0.0000 H   0  0  0  0  0  0  0  0  0  0  0  0
    3.1951    2.5602    0.0000 H   0  0  0  0  0  0  0  0  0  0  0  0
    3.4220    1.7133    0.0000 H   0  0  0  0  0  0  0  0  0  0  0  0
  1  8  1  0  0  0  0
  1 10  1  0  0  0  0
  2  9  1  0  0  0  0
  2 11  1  0  0  0  0
  3 12  1  0  0  0  0
  3 13  1  0  0  0  0
  4 12  1  0  0  0  0
  4 16  1  0  0  0  0
  5 13  1  0  0  0  0
  5 17  1  0  0  0  0
  6 14  2  0  0  0  0
  7 15  2  0  0  0  0
  8 10  1  0  0  0  0
  8 12  1  0  0  0  0
  8 20  1  0  0  0  0
  9 11  1  0  0  0  0
  9 13  1  0  0  0  0
  9 21  1  0  0  0  0
 10 14  1  0  0  0  0
 10 22  1  0  0  0  0
 11 15  1  0  0  0  0
 11 23  1  0  0  0  0
 12 24  1  0  0  0  0
 13 25  1  0  0  0  0
 14 16  1  0  0  0  0
 15 17  1  0  0  0  0
 16 18  1  0  0  0  0
 16 26  1  0  0  0  0
 17 19  1  0  0  0  0
 17 27  1  0  0  0  0
 18 28  1  0  0  0  0
 18 29  1  0  0  0  0
 18 30  1  0  0  0  0
 19 31  1  0  0  0  0
 19 32  1  0  0  0  0
 19 33  1  0  0  0  0
M  END
> <PUBCHEM_COMPOUND_CID>
85932969

> <PUBCHEM_COMPOUND_CANONICALIZED>
1

> <PUBCHEM_CACTVS_COMPLEXITY>
409

> <PUBCHEM_CACTVS_HBOND_ACCEPTOR>
7

> <PUBCHEM_CACTVS_HBOND_DONOR>
0

> <PUBCHEM_CACTVS_ROTATABLE_BOND>
2

> <PUBCHEM_CACTVS_SUBSKEYS>
AAADccBwOAAAAAAAAAAAAAAAEiQAAAAAAAAkSAAABIkAAAAAAAAAGgAAAAAACBSwgAMCCAAABAAIAIAQAAIAAAAAAAAAAAFAAAARABYAAAQiAAAFIAAGAAHCYAwAAAAAAAAAAAAAAAAAAAAAAAAAAAAAAA==

> <PUBCHEM_IUPAC_OPENEYE_NAME>
4-methyl-2-[(4-methyl-5-oxo-3,7-dioxabicyclo[4.1.0]heptan-2-yl)oxy]-3,7-dioxabicyclo[4.1.0]heptan-5-one

> <PUBCHEM_IUPAC_CAS_NAME>
4-methyl-2-[(4-methyl-5-oxo-3,7-dioxabicyclo[4.1.0]heptan-2-yl)oxy]-3,7-dioxabicyclo[4.1.0]heptan-5-one

> <PUBCHEM_IUPAC_NAME_MARKUP>
4-methyl-2-[(4-methyl-5-oxo-3,7-dioxabicyclo[4.1.0]heptan-2-yl)oxy]-3,7-dioxabicyclo[4.1.0]heptan-5-one

> <PUBCHEM_IUPAC_NAME>
4-methyl-2-[(4-methyl-5-oxo-3,7-dioxabicyclo[4.1.0]heptan-2-yl)oxy]-3,7-dioxabicyclo[4.1.0]heptan-5-one

> <PUBCHEM_IUPAC_SYSTEMATIC_NAME>
4-methyl-2-[(4-methyl-5-oxidanylidene-3,7-dioxabicyclo[4.1.0]heptan-2-yl)oxy]-3,7-dioxabicyclo[4.1.0]heptan-5-one

> <PUBCHEM_IUPAC_TRADITIONAL_NAME>
2-[(5-keto-4-methyl-3,7-dioxabicyclo[4.1.0]heptan-2-yl)oxy]-4-methyl-3,7-dioxabicyclo[4.1.0]heptan-5-one

> <PUBCHEM_IUPAC_INCHI>
InChI=1S/C12H14O7/c1-3-5(13)7-9(17-7)11(15-3)19-12-10-8(18-10)6(14)4(2)16-12/h3-4,7-12H,1-2H3

> <PUBCHEM_IUPAC_INCHIKEY>
VJKVGQJMZYZCOD-UHFFFAOYSA-N

> <PUBCHEM_XLOGP3_AA>
-0.3

> <PUBCHEM_EXACT_MASS>
270.07395278

> <PUBCHEM_MOLECULAR_FORMULA>
C12H14O7

> <PUBCHEM_MOLECULAR_WEIGHT>
270.23

> <PUBCHEM_OPENEYE_CAN_SMILES>
CC1C(=O)C2C(O2)C(O1)OC3C4C(O4)C(=O)C(O3)C

> <PUBCHEM_OPENEYE_ISO_SMILES>
CC1C(=O)C2C(O2)C(O1)OC3C4C(O4)C(=O)C(O3)C

> <PUBCHEM_CACTVS_TPSA>
86.9

> <PUBCHEM_MONOISOTOPIC_WEIGHT>
270.07395278

> <PUBCHEM_TOTAL_CHARGE>
0

> <PUBCHEM_HEAVY_ATOM_COUNT>
19

> <PUBCHEM_ATOM_DEF_STEREO_COUNT>
0

> <PUBCHEM_ATOM_UDEF_STEREO_COUNT>
8

> <PUBCHEM_BOND_DEF_STEREO_COUNT>
0

> <PUBCHEM_BOND_UDEF_STEREO_COUNT>
0

> <PUBCHEM_ISOTOPIC_ATOM_COUNT>
0

> <PUBCHEM_COMPONENT_COUNT>
1

> <PUBCHEM_CACTVS_TAUTO_COUNT>
-1

> <PUBCHEM_COORDINATE_TYPE>
1
5
255

> <PUBCHEM_BONDANNOTATIONS>
8  1  3
10  14  3
11  15  3
16  18  3
17  19  3
9  2  3
12  3  3
13  3  3

$$$$
