 
  -OEChem-10192104182D

 82 85  0     1  0  0  0  0  0999 V2000
    3.7320    2.0942    0.0000 P   0  0  3  0  0  0  0  0  0  0  0  0
    7.6726   -2.4685    0.0000 O   0  0  0  0  0  0  0  0  0  0  0  0
    5.1346   -2.9729    0.0000 O   0  0  0  0  0  0  0  0  0  0  0  0
    6.4164   -4.7307    0.0000 O   0  0  0  0  0  0  0  0  0  0  0  0
    9.3972   -3.6465    0.0000 O   0  0  0  0  0  0  0  0  0  0  0  0
    5.1376   -4.7049    0.0000 O   0  0  0  0  0  0  0  0  0  0  0  0
    8.0646   -5.2631    0.0000 O   0  0  0  0  0  0  0  0  0  0  0  0
   10.1044   -5.2276    0.0000 O   0  0  0  0  0  0  0  0  0  0  0  0
    4.2320    2.9602    0.0000 O   0  0  0  0  0  0  0  0  0  0  0  0
    2.8660    2.5942    0.0000 O   0  0  0  0  0  0  0  0  0  0  0  0
    3.2320    1.2281    0.0000 O   0  0  0  0  0  0  0  0  0  0  0  0
    6.7320    3.8262    0.0000 O   0  0  0  0  0  0  0  0  0  0  0  0
    8.7320    5.5583    0.0000 O   0  0  0  0  0  0  0  0  0  0  0  0
    6.4103   -1.2106    0.0000 N   0  0  0  0  0  0  0  0  0  0  0  0
    6.4103    0.3989    0.0000 N   0  0  0  0  0  0  0  0  0  0  0  0
    4.5981   -1.4058    0.0000 N   0  0  0  0  0  0  0  0  0  0  0  0
    3.7320    0.0942    0.0000 N   0  0  0  0  0  0  0  0  0  0  0  0
    4.5981    1.5942    0.0000 N   0  0  0  0  0  0  0  0  0  0  0  0
    6.1346   -2.9711    0.0000 C   0  0  2  0  0  0  0  0  0  0  0  0
    6.7238   -3.7791    0.0000 C   0  0  1  0  0  0  0  0  0  0  0  0
    6.7210   -2.1611    0.0000 C   0  0  1  0  0  0  0  0  0  0  0  0
    7.6743   -3.4685    0.0000 C   0  0  1  0  0  0  0  0  0  0  0  0
    8.4843   -4.0548    0.0000 C   0  0  0  0  0  0  0  0  0  0  0  0
    5.4641   -0.9058    0.0000 C   0  0  0  0  0  0  0  0  0  0  0  0
    6.9939   -0.4058    0.0000 C   0  0  0  0  0  0  0  0  0  0  0  0
    5.4641    0.0942    0.0000 C   0  0  0  0  0  0  0  0  0  0  0  0
    4.6361   -3.8397    0.0000 C   0  0  0  0  0  0  0  0  0  0  0  0
    7.0868   -5.4727    0.0000 C   0  0  0  0  0  0  0  0  0  0  0  0
    4.5981    0.5942    0.0000 C   0  0  0  0  0  0  0  0  0  0  0  0
    3.6361   -3.8415    0.0000 C   0  0  0  0  0  0  0  0  0  0  0  0
   10.2072   -4.2329    0.0000 C   0  0  0  0  0  0  0  0  0  0  0  0
    6.7795   -6.4243    0.0000 C   0  0  0  0  0  0  0  0  0  0  0  0
    3.7320   -0.9058    0.0000 C   0  0  0  0  0  0  0  0  0  0  0  0
   11.1201   -3.8246    0.0000 C   0  0  0  0  0  0  0  0  0  0  0  0
    5.2320    2.9602    0.0000 C   0  0  0  0  0  0  0  0  0  0  0  0
    2.8660    3.5942    0.0000 C   0  0  0  0  0  0  0  0  0  0  0  0
    5.7320    3.8262    0.0000 C   0  0  0  0  0  0  0  0  0  0  0  0
    2.0000    4.0942    0.0000 C   0  0  0  0  0  0  0  0  0  0  0  0
    3.7320    4.0942    0.0000 C   0  0  0  0  0  0  0  0  0  0  0  0
    7.2320    4.6922    0.0000 C   0  0  0  0  0  0  0  0  0  0  0  0
    2.0000    5.0942    0.0000 C   0  0  0  0  0  0  0  0  0  0  0  0
    3.7320    5.0942    0.0000 C   0  0  0  0  0  0  0  0  0  0  0  0
    2.8660    5.5942    0.0000 C   0  0  0  0  0  0  0  0  0  0  0  0
    8.2320    4.6922    0.0000 C   0  0  0  0  0  0  0  0  0  0  0  0
    9.7320    5.5583    0.0000 C   0  0  0  0  0  0  0  0  0  0  0  0
   10.2321    6.4243    0.0000 C   0  0  0  0  0  0  0  0  0  0  0  0
    5.8541   -3.5240    0.0000 H   0  0  0  0  0  0  0  0  0  0  0  0
    6.1116   -3.8772    0.0000 H   0  0  0  0  0  0  0  0  0  0  0  0
    6.1085   -2.0652    0.0000 H   0  0  0  0  0  0  0  0  0  0  0  0
    8.2262   -3.1860    0.0000 H   0  0  0  0  0  0  0  0  0  0  0  0
    8.0391   -4.4863    0.0000 H   0  0  0  0  0  0  0  0  0  0  0  0
    8.8319   -4.5682    0.0000 H   0  0  0  0  0  0  0  0  0  0  0  0
    7.6139   -0.4058    0.0000 H   0  0  0  0  0  0  0  0  0  0  0  0
    3.6350   -3.2215    0.0000 H   0  0  0  0  0  0  0  0  0  0  0  0
    3.0161   -3.8426    0.0000 H   0  0  0  0  0  0  0  0  0  0  0  0
    3.6372   -4.4615    0.0000 H   0  0  0  0  0  0  0  0  0  0  0  0
    6.1895   -6.2337    0.0000 H   0  0  0  0  0  0  0  0  0  0  0  0
    6.5889   -7.0143    0.0000 H   0  0  0  0  0  0  0  0  0  0  0  0
    7.3694   -6.6149    0.0000 H   0  0  0  0  0  0  0  0  0  0  0  0
    3.1951   -1.2158    0.0000 H   0  0  0  0  0  0  0  0  0  0  0  0
    5.1350    1.9042    0.0000 H   0  0  0  0  0  0  0  0  0  0  0  0
   11.3732   -4.3906    0.0000 H   0  0  0  0  0  0  0  0  0  0  0  0
   11.6860   -3.5714    0.0000 H   0  0  0  0  0  0  0  0  0  0  0  0
   10.8669   -3.2586    0.0000 H   0  0  0  0  0  0  0  0  0  0  0  0
    5.1244    2.3496    0.0000 H   0  0  0  0  0  0  0  0  0  0  0  0
    5.8147    2.7481    0.0000 H   0  0  0  0  0  0  0  0  0  0  0  0
    5.8397    4.4368    0.0000 H   0  0  0  0  0  0  0  0  0  0  0  0
    5.1494    4.0383    0.0000 H   0  0  0  0  0  0  0  0  0  0  0  0
    1.4631    3.7842    0.0000 H   0  0  0  0  0  0  0  0  0  0  0  0
    4.2690    3.7842    0.0000 H   0  0  0  0  0  0  0  0  0  0  0  0
    7.3397    5.3028    0.0000 H   0  0  0  0  0  0  0  0  0  0  0  0
    6.6494    4.9043    0.0000 H   0  0  0  0  0  0  0  0  0  0  0  0
    1.4631    5.4042    0.0000 H   0  0  0  0  0  0  0  0  0  0  0  0
    4.2690    5.4042    0.0000 H   0  0  0  0  0  0  0  0  0  0  0  0
    2.8660    6.2142    0.0000 H   0  0  0  0  0  0  0  0  0  0  0  0
    8.1244    4.0817    0.0000 H   0  0  0  0  0  0  0  0  0  0  0  0
    8.8147    4.4802    0.0000 H   0  0  0  0  0  0  0  0  0  0  0  0
    9.6244    4.9477    0.0000 H   0  0  0  0  0  0  0  0  0  0  0  0
   10.3147    5.3462    0.0000 H   0  0  0  0  0  0  0  0  0  0  0  0
   10.7690    6.1143    0.0000 H   0  0  0  0  0  0  0  0  0  0  0  0
   10.5421    6.9612    0.0000 H   0  0  0  0  0  0  0  0  0  0  0  0
    9.6951    6.7343    0.0000 H   0  0  0  0  0  0  0  0  0  0  0  0
  1  9  1  0  0  0  0
  1 10  1  0  0  0  0
  1 11  2  0  0  0  0
  1 18  1  0  0  0  0
  2 21  1  0  0  0  0
  2 22  1  0  0  0  0
 19  3  1  1  0  0  0
  3 27  1  0  0  0  0
 20  4  1  1  0  0  0
  4 28  1  0  0  0  0
  5 23  1  0  0  0  0
  5 31  1  0  0  0  0
  6 27  2  0  0  0  0
  7 28  2  0  0  0  0
  8 31  2  0  0  0  0
  9 35  1  0  0  0  0
 10 36  1  0  0  0  0
 12 37  1  0  0  0  0
 12 40  1  0  0  0  0
 13 44  1  0  0  0  0
 13 45  1  0  0  0  0
 21 14  1  6  0  0  0
 14 24  1  0  0  0  0
 14 25  1  0  0  0  0
 15 25  2  0  0  0  0
 15 26  1  0  0  0  0
 16 24  2  0  0  0  0
 16 33  1  0  0  0  0
 17 29  1  0  0  0  0
 17 33  2  0  0  0  0
 18 29  1  0  0  0  0
 18 61  1  0  0  0  0
 19 20  1  0  0  0  0
 19 21  1  0  0  0  0
 19 47  1  0  0  0  0
 20 22  1  0  0  0  0
 20 48  1  0  0  0  0
 21 49  1  0  0  0  0
 22 23  1  6  0  0  0
 22 50  1  0  0  0  0
 23 51  1  0  0  0  0
 23 52  1  0  0  0  0
 24 26  1  0  0  0  0
 25 53  1  0  0  0  0
 26 29  2  0  0  0  0
 27 30  1  0  0  0  0
 28 32  1  0  0  0  0
 30 54  1  0  0  0  0
 30 55  1  0  0  0  0
 30 56  1  0  0  0  0
 31 34  1  0  0  0  0
 32 57  1  0  0  0  0
 32 58  1  0  0  0  0
 32 59  1  0  0  0  0
 33 60  1  0  0  0  0
 34 62  1  0  0  0  0
 34 63  1  0  0  0  0
 34 64  1  0  0  0  0
 35 37  1  0  0  0  0
 35 65  1  0  0  0  0
 35 66  1  0  0  0  0
 36 38  2  0  0  0  0
 36 39  1  0  0  0  0
 37 67  1  0  0  0  0
 37 68  1  0  0  0  0
 38 41  1  0  0  0  0
 38 69  1  0  0  0  0
 39 42  2  0  0  0  0
 39 70  1  0  0  0  0
 40 44  1  0  0  0  0
 40 71  1  0  0  0  0
 40 72  1  0  0  0  0
 41 43  2  0  0  0  0
 41 73  1  0  0  0  0
 42 43  1  0  0  0  0
 42 74  1  0  0  0  0
 43 75  1  0  0  0  0
 44 76  1  0  0  0  0
 44 77  1  0  0  0  0
 45 46  1  0  0  0  0
 45 78  1  0  0  0  0
 45 79  1  0  0  0  0
 46 80  1  0  0  0  0
 46 81  1  0  0  0  0
 46 82  1  0  0  0  0
M  END
> <PUBCHEM_COMPOUND_CID>
10349469

> <PUBCHEM_COMPOUND_CANONICALIZED>
1

> <PUBCHEM_CACTVS_COMPLEXITY>
1050

> <PUBCHEM_CACTVS_HBOND_ACCEPTOR>
16

> <PUBCHEM_CACTVS_HBOND_DONOR>
1

> <PUBCHEM_CACTVS_ROTATABLE_BOND>
20

> <PUBCHEM_CACTVS_SUBSKEYS>
AAADcfB7vAIAAAAAAAAAAAAAAAAAAWJAAAA8QAAAAAAAAFgB/AAAHgAQgCAACBzhlwY3/r9MFRCoQSbzbICCgC0xMKAJ2CAuXJiLbiLA2VKfNAgvwBPaiCfwcAoAAAAAAAAAAAAAAAAAAAAAAAAAAAAAAA==

> <PUBCHEM_IUPAC_OPENEYE_NAME>
[(2R,3R,4R,5R)-3,4-diacetoxy-5-[6-[[2-(2-ethoxyethoxy)ethoxy-phenoxy-phosphoryl]amino]purin-9-yl]tetrahydrofuran-2-yl]methyl acetate

> <PUBCHEM_IUPAC_CAS_NAME>
acetic acid [(2R,3R,4R,5R)-3,4-diacetyloxy-5-[6-[[2-(2-ethoxyethoxy)ethoxy-phenoxyphosphoryl]amino]-9-purinyl]-2-oxolanyl]methyl ester

> <PUBCHEM_IUPAC_NAME_MARKUP>
[(2<I>R</I>,3<I>R</I>,4<I>R</I>,5<I>R</I>)-3,4-diacetyloxy-5-[6-[[2-(2-ethoxyethoxy)ethoxy-phenoxyphosphoryl]amino]purin-9-yl]oxolan-2-yl]methyl acetate

> <PUBCHEM_IUPAC_NAME>
[(2R,3R,4R,5R)-3,4-diacetyloxy-5-[6-[[2-(2-ethoxyethoxy)ethoxy-phenoxyphosphoryl]amino]purin-9-yl]oxolan-2-yl]methyl acetate

> <PUBCHEM_IUPAC_SYSTEMATIC_NAME>
[(2R,3R,4R,5R)-3,4-diacetyloxy-5-[6-[[2-(2-ethoxyethoxy)ethoxy-phenoxy-phosphoryl]amino]purin-9-yl]oxolan-2-yl]methyl ethanoate

> <PUBCHEM_IUPAC_TRADITIONAL_NAME>
acetic acid [(2R,3R,4R,5R)-3,4-diacetoxy-5-[6-[[2-(2-ethoxyethoxy)ethoxy-phenoxy-phosphoryl]amino]purin-9-yl]tetrahydrofuran-2-yl]methyl ester

> <PUBCHEM_IUPAC_INCHI>
InChI=1S/C28H36N5O12P/c1-5-38-11-12-39-13-14-41-46(37,45-21-9-7-6-8-10-21)32-26-23-27(30-16-29-26)33(17-31-23)28-25(43-20(4)36)24(42-19(3)35)22(44-28)15-40-18(2)34/h6-10,16-17,22,24-25,28H,5,11-15H2,1-4H3,(H,29,30,32,37)/t22-,24-,25-,28-,46?/m1/s1

> <PUBCHEM_IUPAC_INCHIKEY>
WRJDIHXGUHJKMR-CFGBWSGNSA-N

> <PUBCHEM_XLOGP3_AA>
1.3

> <PUBCHEM_EXACT_MASS>
665.20980860

> <PUBCHEM_MOLECULAR_FORMULA>
C28H36N5O12P

> <PUBCHEM_MOLECULAR_WEIGHT>
665.6

> <PUBCHEM_OPENEYE_CAN_SMILES>
CCOCCOCCOP(=O)(NC1=C2C(=NC=N1)N(C=N2)C3C(C(C(O3)COC(=O)C)OC(=O)C)OC(=O)C)OC4=CC=CC=C4

> <PUBCHEM_OPENEYE_ISO_SMILES>
CCOCCOCCOP(=O)(NC1=C2C(=NC=N1)N(C=N2)[C@H]3[C@@H]([C@@H]([C@H](O3)COC(=O)C)OC(=O)C)OC(=O)C)OC4=CC=CC=C4

> <PUBCHEM_CACTVS_TPSA>
198

> <PUBCHEM_MONOISOTOPIC_WEIGHT>
665.20980860

> <PUBCHEM_TOTAL_CHARGE>
0

> <PUBCHEM_HEAVY_ATOM_COUNT>
46

> <PUBCHEM_ATOM_DEF_STEREO_COUNT>
4

> <PUBCHEM_ATOM_UDEF_STEREO_COUNT>
1

> <PUBCHEM_BOND_DEF_STEREO_COUNT>
0

> <PUBCHEM_BOND_UDEF_STEREO_COUNT>
0

> <PUBCHEM_ISOTOPIC_ATOM_COUNT>
0

> <PUBCHEM_COMPONENT_COUNT>
1

> <PUBCHEM_CACTVS_TAUTO_COUNT>
-1

> <PUBCHEM_COORDINATE_TYPE>
1
5
255

> <PUBCHEM_BONDANNOTATIONS>
1  18  3
21  14  6
14  24  8
14  25  8
15  25  8
15  26  8
16  24  8
16  33  8
17  29  8
17  33  8
22  23  6
24  26  8
26  29  8
19  3  5
36  38  8
36  39  8
38  41  8
39  42  8
20  4  5
41  43  8
42  43  8

$$$$
