 
  -OEChem-10192104322D

 66 68  0     1  0  0  0  0  0999 V2000
    4.2690   -0.4050    0.0000 O   0  0  0  0  0  0  0  0  0  0  0  0
    6.0010   -2.4050    0.0000 O   0  0  0  0  0  0  0  0  0  0  0  0
    6.0010   -0.4050    0.0000 O   0  0  0  0  0  0  0  0  0  0  0  0
    6.8671    2.0950    0.0000 O   0  0  0  0  0  0  0  0  0  0  0  0
    5.1350   -3.9050    0.0000 O   0  0  0  0  0  0  0  0  0  0  0  0
    4.2690   -3.4050    0.0000 O   0  0  0  0  0  0  0  0  0  0  0  0
    2.5369   -2.4050    0.0000 O   0  0  0  0  0  0  0  0  0  0  0  0
    7.7331   -0.4050    0.0000 O   0  0  0  0  0  0  0  0  0  0  0  0
    9.4651    0.5950    0.0000 O   0  0  0  0  0  0  0  0  0  0  0  0
    7.7331    3.5950    0.0000 O   0  0  0  0  0  0  0  0  0  0  0  0
    7.7331   -3.4050    0.0000 O   0  0  0  0  0  0  0  0  0  0  0  0
    9.4651    2.5950    0.0000 O   0  0  0  0  0  0  0  0  0  0  0  0
    7.7331   -5.4050    0.0000 O   0  0  0  0  0  0  0  0  0  0  0  0
    6.0010   -6.4050    0.0000 O   0  0  0  0  0  0  0  0  0  0  0  0
    5.1350   -1.9050    0.0000 C   0  0  2  0  0  0  0  0  0  0  0  0
    4.2690   -2.4050    0.0000 C   0  0  2  0  0  0  0  0  0  0  0  0
    5.1350   -0.9050    0.0000 C   0  0  1  0  0  0  0  0  0  0  0  0
    3.4030   -1.9050    0.0000 C   0  0  2  0  0  0  0  0  0  0  0  0
    3.4030   -0.9050    0.0000 C   0  0  1  0  0  0  0  0  0  0  0  0
    6.8671    1.0950    0.0000 C   0  0  1  0  0  0  0  0  0  0  0  0
    7.7331    0.5950    0.0000 C   0  0  2  0  0  0  0  0  0  0  0  0
    6.0010   -3.4050    0.0000 C   0  0  2  0  0  0  0  0  0  0  0  0
    8.5991    1.0950    0.0000 C   0  0  1  0  0  0  0  0  0  0  0  0
    6.0010    0.5950    0.0000 C   0  0  0  0  0  0  0  0  0  0  0  0
    6.8671   -3.9050    0.0000 C   0  0  1  0  0  0  0  0  0  0  0  0
    8.5991    2.0950    0.0000 C   0  0  2  0  0  0  0  0  0  0  0  0
    6.8671   -4.9050    0.0000 C   0  0  2  0  0  0  0  0  0  0  0  0
    7.7331    2.5950    0.0000 C   0  0  1  0  0  0  0  0  0  0  0  0
    6.0010   -5.4050    0.0000 C   0  0  1  0  0  0  0  0  0  0  0  0
    2.5369   -0.4050    0.0000 C   0  0  0  0  0  0  0  0  0  0  0  0
    5.1350   -4.9050    0.0000 C   0  0  0  0  0  0  0  0  0  0  0  0
    6.8671    4.0950    0.0000 C   0  0  0  0  0  0  0  0  0  0  0  0
    6.8671    5.0950    0.0000 C   0  0  0  0  0  0  0  0  0  0  0  0
    6.8671    6.0950    0.0000 C   0  0  0  0  0  0  0  0  0  0  0  0
    5.1350   -2.5250    0.0000 H   0  0  0  0  0  0  0  0  0  0  0  0
    3.7320   -2.7150    0.0000 H   0  0  0  0  0  0  0  0  0  0  0  0
    5.1350   -0.2850    0.0000 H   0  0  0  0  0  0  0  0  0  0  0  0
    3.4030   -2.5250    0.0000 H   0  0  0  0  0  0  0  0  0  0  0  0
    3.4030   -0.2850    0.0000 H   0  0  0  0  0  0  0  0  0  0  0  0
    6.3301    1.4050    0.0000 H   0  0  0  0  0  0  0  0  0  0  0  0
    8.2700    0.2850    0.0000 H   0  0  0  0  0  0  0  0  0  0  0  0
    6.5380   -3.0950    0.0000 H   0  0  0  0  0  0  0  0  0  0  0  0
    9.1360    1.4050    0.0000 H   0  0  0  0  0  0  0  0  0  0  0  0
    5.7890    1.1776    0.0000 H   0  0  0  0  0  0  0  0  0  0  0  0
    5.3905    0.4873    0.0000 H   0  0  0  0  0  0  0  0  0  0  0  0
    7.4040   -4.2150    0.0000 H   0  0  0  0  0  0  0  0  0  0  0  0
    8.5991    2.7150    0.0000 H   0  0  0  0  0  0  0  0  0  0  0  0
    6.8671   -5.5250    0.0000 H   0  0  0  0  0  0  0  0  0  0  0  0
    7.1962    2.9050    0.0000 H   0  0  0  0  0  0  0  0  0  0  0  0
    5.4641   -5.7150    0.0000 H   0  0  0  0  0  0  0  0  0  0  0  0
    2.8469    0.1319    0.0000 H   0  0  0  0  0  0  0  0  0  0  0  0
    2.0000   -0.0950    0.0000 H   0  0  0  0  0  0  0  0  0  0  0  0
    2.2269   -0.9419    0.0000 H   0  0  0  0  0  0  0  0  0  0  0  0
    4.5244   -4.7973    0.0000 H   0  0  0  0  0  0  0  0  0  0  0  0
    4.9230   -5.4876    0.0000 H   0  0  0  0  0  0  0  0  0  0  0  0
    3.7320   -3.7150    0.0000 H   0  0  0  0  0  0  0  0  0  0  0  0
    2.0000   -2.0950    0.0000 H   0  0  0  0  0  0  0  0  0  0  0  0
    8.2700   -0.7150    0.0000 H   0  0  0  0  0  0  0  0  0  0  0  0
   10.0021    0.9050    0.0000 H   0  0  0  0  0  0  0  0  0  0  0  0
    8.2700   -3.7150    0.0000 H   0  0  0  0  0  0  0  0  0  0  0  0
    9.4651    3.2150    0.0000 H   0  0  0  0  0  0  0  0  0  0  0  0
    7.7331   -6.0250    0.0000 H   0  0  0  0  0  0  0  0  0  0  0  0
    5.4641   -6.7150    0.0000 H   0  0  0  0  0  0  0  0  0  0  0  0
    6.2565    4.2027    0.0000 H   0  0  0  0  0  0  0  0  0  0  0  0
    6.6550    3.5124    0.0000 H   0  0  0  0  0  0  0  0  0  0  0  0
    6.8671    6.7150    0.0000 H   0  0  0  0  0  0  0  0  0  0  0  0
  1 17  1  0  0  0  0
  1 19  1  0  0  0  0
 15  2  1  6  0  0  0
 22  2  1  1  0  0  0
 17  3  1  1  0  0  0
  3 24  1  0  0  0  0
  4 20  1  0  0  0  0
  4 28  1  0  0  0  0
  5 22  1  0  0  0  0
  5 31  1  0  0  0  0
 16  6  1  1  0  0  0
  6 56  1  0  0  0  0
 18  7  1  1  0  0  0
  7 57  1  0  0  0  0
 21  8  1  6  0  0  0
  8 58  1  0  0  0  0
 23  9  1  1  0  0  0
  9 59  1  0  0  0  0
 28 10  1  1  0  0  0
 10 32  1  0  0  0  0
 25 11  1  6  0  0  0
 11 60  1  0  0  0  0
 26 12  1  6  0  0  0
 12 61  1  0  0  0  0
 27 13  1  1  0  0  0
 13 62  1  0  0  0  0
 29 14  1  6  0  0  0
 14 63  1  0  0  0  0
 15 16  1  0  0  0  0
 15 17  1  0  0  0  0
 15 35  1  0  0  0  0
 16 18  1  0  0  0  0
 16 36  1  0  0  0  0
 17 37  1  0  0  0  0
 18 19  1  0  0  0  0
 18 38  1  0  0  0  0
 19 30  1  1  0  0  0
 19 39  1  0  0  0  0
 20 21  1  0  0  0  0
 20 24  1  1  0  0  0
 20 40  1  0  0  0  0
 21 23  1  0  0  0  0
 21 41  1  0  0  0  0
 22 25  1  0  0  0  0
 22 42  1  0  0  0  0
 23 26  1  0  0  0  0
 23 43  1  0  0  0  0
 24 44  1  0  0  0  0
 24 45  1  0  0  0  0
 25 27  1  0  0  0  0
 25 46  1  0  0  0  0
 26 28  1  0  0  0  0
 26 47  1  0  0  0  0
 27 29  1  0  0  0  0
 27 48  1  0  0  0  0
 28 49  1  0  0  0  0
 29 31  1  0  0  0  0
 29 50  1  0  0  0  0
 30 51  1  0  0  0  0
 30 52  1  0  0  0  0
 30 53  1  0  0  0  0
 31 54  1  0  0  0  0
 31 55  1  0  0  0  0
 32 33  1  0  0  0  0
 32 64  1  0  0  0  0
 32 65  1  0  0  0  0
 33 34  3  0  0  0  0
 34 66  1  0  0  0  0
M  END
> <PUBCHEM_COMPOUND_CID>
102161567

> <PUBCHEM_COMPOUND_CANONICALIZED>
1

> <PUBCHEM_CACTVS_COMPLEXITY>
700

> <PUBCHEM_CACTVS_HBOND_ACCEPTOR>
14

> <PUBCHEM_CACTVS_HBOND_DONOR>
8

> <PUBCHEM_CACTVS_ROTATABLE_BOND>
7

> <PUBCHEM_CACTVS_SUBSKEYS>
AAADcfB4PAAAAAAAAAAAAAAAAAAAAAAAAAAkSJAAAAAAAAAAAAAAGgAACAAACBSwgAMCCAAABgBAGAAAAAAAAAAAAAAAAAAAAAAREAIAAAAiQAAFAAAHAAHAYAwAAAAAAAAAAAAAAAAAAAAAAAAAAAAAAA==

> <PUBCHEM_IUPAC_OPENEYE_NAME>
(2R,3S,4S,5R,6R)-2-[[(2R,3R,4S,5R,6R)-4,5-dihydroxy-6-methyl-3-[(2S,3R,4S,5R)-3,4,5-trihydroxytetrahydropyran-2-yl]oxy-tetrahydropyran-2-yl]oxymethyl]-6-prop-2-ynoxy-tetrahydropyran-3,4,5-triol

> <PUBCHEM_IUPAC_CAS_NAME>
(2R,3S,4S,5R,6R)-2-[[(2R,3R,4S,5R,6R)-4,5-dihydroxy-6-methyl-3-[[(2S,3R,4S,5R)-3,4,5-trihydroxy-2-oxanyl]oxy]-2-oxanyl]oxymethyl]-6-prop-2-ynoxyoxane-3,4,5-triol

> <PUBCHEM_IUPAC_NAME_MARKUP>
(2<I>R</I>,3<I>S</I>,4<I>S</I>,5<I>R</I>,6<I>R</I>)-2-[[(2<I>R</I>,3<I>R</I>,4<I>S</I>,5<I>R</I>,6<I>R</I>)-4,5-dihydroxy-6-methyl-3-[(2<I>S</I>,3<I>R</I>,4<I>S</I>,5<I>R</I>)-3,4,5-trihydroxyoxan-2-yl]oxyoxan-2-yl]oxymethyl]-6-prop-2-ynoxyoxane-3,4,5-triol

> <PUBCHEM_IUPAC_NAME>
(2R,3S,4S,5R,6R)-2-[[(2R,3R,4S,5R,6R)-4,5-dihydroxy-6-methyl-3-[(2S,3R,4S,5R)-3,4,5-trihydroxyoxan-2-yl]oxyoxan-2-yl]oxymethyl]-6-prop-2-ynoxyoxane-3,4,5-triol

> <PUBCHEM_IUPAC_SYSTEMATIC_NAME>
(2R,3S,4S,5R,6R)-2-[[(2R,3R,4S,5R,6R)-6-methyl-4,5-bis(oxidanyl)-3-[(2S,3R,4S,5R)-3,4,5-tris(oxidanyl)oxan-2-yl]oxy-oxan-2-yl]oxymethyl]-6-prop-2-ynoxy-oxane-3,4,5-triol

> <PUBCHEM_IUPAC_TRADITIONAL_NAME>
(2R,3S,4S,5R,6R)-2-[[(2R,3R,4S,5R,6R)-4,5-dihydroxy-6-methyl-3-[(2S,3R,4S,5R)-3,4,5-trihydroxytetrahydropyran-2-yl]oxy-tetrahydropyran-2-yl]oxymethyl]-6-propargyloxy-tetrahydropyran-3,4,5-triol

> <PUBCHEM_IUPAC_INCHI>
InChI=1S/C20H32O14/c1-3-4-29-18-16(28)13(25)12(24)9(33-18)6-31-20-17(14(26)10(22)7(2)32-20)34-19-15(27)11(23)8(21)5-30-19/h1,7-28H,4-6H2,2H3/t7-,8-,9-,10+,11+,12-,13+,14+,15-,16-,17-,18-,19+,20-/m1/s1

> <PUBCHEM_IUPAC_INCHIKEY>
UURZAHMTQBVUNM-IEIVKKOUSA-N

> <PUBCHEM_XLOGP3_AA>
-5.1

> <PUBCHEM_EXACT_MASS>
496.17920569

> <PUBCHEM_MOLECULAR_FORMULA>
C20H32O14

> <PUBCHEM_MOLECULAR_WEIGHT>
496.5

> <PUBCHEM_OPENEYE_CAN_SMILES>
CC1C(C(C(C(O1)OCC2C(C(C(C(O2)OCC#C)O)O)O)OC3C(C(C(CO3)O)O)O)O)O

> <PUBCHEM_OPENEYE_ISO_SMILES>
C[C@@H]1[C@@H]([C@@H]([C@H]([C@@H](O1)OC[C@@H]2[C@H]([C@@H]([C@H]([C@@H](O2)OCC#C)O)O)O)O[C@H]3[C@@H]([C@H]([C@@H](CO3)O)O)O)O)O

> <PUBCHEM_CACTVS_TPSA>
217

> <PUBCHEM_MONOISOTOPIC_WEIGHT>
496.17920569

> <PUBCHEM_TOTAL_CHARGE>
0

> <PUBCHEM_HEAVY_ATOM_COUNT>
34

> <PUBCHEM_ATOM_DEF_STEREO_COUNT>
14

> <PUBCHEM_ATOM_UDEF_STEREO_COUNT>
0

> <PUBCHEM_BOND_DEF_STEREO_COUNT>
0

> <PUBCHEM_BOND_UDEF_STEREO_COUNT>
0

> <PUBCHEM_ISOTOPIC_ATOM_COUNT>
0

> <PUBCHEM_COMPONENT_COUNT>
1

> <PUBCHEM_CACTVS_TAUTO_COUNT>
-1

> <PUBCHEM_COORDINATE_TYPE>
1
5
255

> <PUBCHEM_BONDANNOTATIONS>
28  10  5
25  11  6
26  12  6
27  13  5
29  14  6
19  30  5
15  2  6
22  2  5
20  24  5
17  3  5
16  6  5
18  7  5
21  8  6
23  9  5

$$$$
