 
  -OEChem-10192104232D

 73 77  0     1  0  0  0  0  0999 V2000
    6.9184   -1.0883    0.0000 O   0  0  0  0  0  0  0  0  0  0  0  0
   11.3762   -2.4863    0.0000 O   0  0  0  0  0  0  0  0  0  0  0  0
    8.2626    1.9603    0.0000 O   0  0  0  0  0  0  0  0  0  0  0  0
    9.5640   -3.6815    0.0000 O   0  0  0  0  0  0  0  0  0  0  0  0
   11.0190    0.8180    0.0000 O   0  0  0  0  0  0  0  0  0  0  0  0
    3.5400    3.4706    0.0000 O   0  0  0  0  0  0  0  0  0  0  0  0
    2.3644    1.8526    0.0000 O   0  0  0  0  0  0  0  0  0  0  0  0
   14.9598   -3.4136    0.0000 O   0  0  0  0  0  0  0  0  0  0  0  0
   15.9598   -1.6815    0.0000 O   0  0  0  0  0  0  0  0  0  0  0  0
    7.7274    0.3130    0.0000 C   0  0  3  0  0  0  0  0  0  0  0  0
    6.7492    0.5209    0.0000 C   0  0  3  0  0  0  0  0  0  0  0  0
    7.8319   -0.6815    0.0000 C   0  0  3  0  0  0  0  0  0  0  0  0
    6.2492   -0.3451    0.0000 C   0  0  0  0  0  0  0  0  0  0  0  0
    6.3425    1.4344    0.0000 C   0  0  0  0  0  0  0  0  0  0  0  0
    8.6980   -1.1815    0.0000 C   0  0  0  0  0  0  0  0  0  0  0  0
    8.4705    0.9821    0.0000 C   0  0  0  0  0  0  0  0  0  0  0  0
   11.3762   -0.8768    0.0000 C   0  0  1  0  0  0  0  0  0  0  0  0
   10.4300   -1.1815    0.0000 C   0  0  0  0  0  0  0  0  0  0  0  0
    9.5640   -0.6815    0.0000 C   0  0  0  0  0  0  0  0  0  0  0  0
   11.9598   -1.6815    0.0000 C   0  0  1  0  0  0  0  0  0  0  0  0
   10.4300   -2.1815    0.0000 C   0  0  0  0  0  0  0  0  0  0  0  0
    8.6980   -2.1815    0.0000 C   0  0  0  0  0  0  0  0  0  0  0  0
    5.3480    1.5390    0.0000 C   0  0  0  0  0  0  0  0  0  0  0  0
    9.5640   -2.6815    0.0000 C   0  0  0  0  0  0  0  0  0  0  0  0
   11.6869    0.0737    0.0000 C   0  0  0  0  0  0  0  0  0  0  0  0
   12.9598   -1.6815    0.0000 C   0  0  0  0  0  0  0  0  0  0  0  0
    4.9413    2.4525    0.0000 C   0  0  0  0  0  0  0  0  0  0  0  0
    4.7602    0.7300    0.0000 C   0  0  0  0  0  0  0  0  0  0  0  0
   13.4598   -2.5476    0.0000 C   0  0  0  0  0  0  0  0  0  0  0  0
   13.4598   -0.8155    0.0000 C   0  0  0  0  0  0  0  0  0  0  0  0
    3.9467    2.5570    0.0000 C   0  0  0  0  0  0  0  0  0  0  0  0
    3.7657    0.8345    0.0000 C   0  0  0  0  0  0  0  0  0  0  0  0
    3.3590    1.7480    0.0000 C   0  0  0  0  0  0  0  0  0  0  0  0
   14.4598   -2.5476    0.0000 C   0  0  0  0  0  0  0  0  0  0  0  0
   14.4598   -0.8155    0.0000 C   0  0  0  0  0  0  0  0  0  0  0  0
    8.6980   -4.1815    0.0000 C   0  0  0  0  0  0  0  0  0  0  0  0
   14.9598   -1.6815    0.0000 C   0  0  0  0  0  0  0  0  0  0  0  0
    4.1278    4.2796    0.0000 C   0  0  0  0  0  0  0  0  0  0  0  0
   14.4598   -4.2796    0.0000 C   0  0  0  0  0  0  0  0  0  0  0  0
    7.5669    0.9119    0.0000 H   0  0  0  0  0  0  0  0  0  0  0  0
    6.1301    0.5533    0.0000 H   0  0  0  0  0  0  0  0  0  0  0  0
    8.3519   -0.3439    0.0000 H   0  0  0  0  0  0  0  0  0  0  0  0
    5.7477    0.0193    0.0000 H   0  0  0  0  0  0  0  0  0  0  0  0
    5.8344   -0.8059    0.0000 H   0  0  0  0  0  0  0  0  0  0  0  0
    6.9441    1.5844    0.0000 H   0  0  0  0  0  0  0  0  0  0  0  0
    6.2993    2.0529    0.0000 H   0  0  0  0  0  0  0  0  0  0  0  0
    8.7991    0.4563    0.0000 H   0  0  0  0  0  0  0  0  0  0  0  0
    9.0454    1.2144    0.0000 H   0  0  0  0  0  0  0  0  0  0  0  0
   11.9887   -0.7806    0.0000 H   0  0  0  0  0  0  0  0  0  0  0  0
    9.5640   -0.0615    0.0000 H   0  0  0  0  0  0  0  0  0  0  0  0
   12.2415   -1.1292    0.0000 H   0  0  0  0  0  0  0  0  0  0  0  0
    8.1610   -2.4915    0.0000 H   0  0  0  0  0  0  0  0  0  0  0  0
   12.2338   -0.2183    0.0000 H   0  0  0  0  0  0  0  0  0  0  0  0
   12.0694    0.5616    0.0000 H   0  0  0  0  0  0  0  0  0  0  0  0
    8.7234    2.3751    0.0000 H   0  0  0  0  0  0  0  0  0  0  0  0
    5.3057    2.9541    0.0000 H   0  0  0  0  0  0  0  0  0  0  0  0
    5.0124    0.1636    0.0000 H   0  0  0  0  0  0  0  0  0  0  0  0
   13.1498   -3.0845    0.0000 H   0  0  0  0  0  0  0  0  0  0  0  0
   13.1498   -0.2786    0.0000 H   0  0  0  0  0  0  0  0  0  0  0  0
    3.4013    0.3329    0.0000 H   0  0  0  0  0  0  0  0  0  0  0  0
   11.2117    1.4073    0.0000 H   0  0  0  0  0  0  0  0  0  0  0  0
   14.7698   -0.2786    0.0000 H   0  0  0  0  0  0  0  0  0  0  0  0
    8.3880   -3.6446    0.0000 H   0  0  0  0  0  0  0  0  0  0  0  0
    8.1610   -4.4915    0.0000 H   0  0  0  0  0  0  0  0  0  0  0  0
    9.0079   -4.7185    0.0000 H   0  0  0  0  0  0  0  0  0  0  0  0
    2.0000    1.3510    0.0000 H   0  0  0  0  0  0  0  0  0  0  0  0
    4.6294    3.9152    0.0000 H   0  0  0  0  0  0  0  0  0  0  0  0
    4.4922    4.7812    0.0000 H   0  0  0  0  0  0  0  0  0  0  0  0
    3.6262    4.6440    0.0000 H   0  0  0  0  0  0  0  0  0  0  0  0
   16.2698   -1.1446    0.0000 H   0  0  0  0  0  0  0  0  0  0  0  0
   13.9229   -3.9696    0.0000 H   0  0  0  0  0  0  0  0  0  0  0  0
   14.1498   -4.8166    0.0000 H   0  0  0  0  0  0  0  0  0  0  0  0
   14.9968   -4.5896    0.0000 H   0  0  0  0  0  0  0  0  0  0  0  0
  1 12  1  0  0  0  0
  1 13  1  0  0  0  0
  2 20  1  0  0  0  0
  2 21  1  0  0  0  0
  3 16  1  0  0  0  0
  3 55  1  0  0  0  0
  4 24  1  0  0  0  0
  4 36  1  0  0  0  0
  5 25  1  0  0  0  0
  5 61  1  0  0  0  0
  6 31  1  0  0  0  0
  6 38  1  0  0  0  0
  7 33  1  0  0  0  0
  7 66  1  0  0  0  0
  8 34  1  0  0  0  0
  8 39  1  0  0  0  0
  9 37  1  0  0  0  0
  9 70  1  0  0  0  0
 10 11  1  0  0  0  0
 10 12  1  0  0  0  0
 10 16  1  0  0  0  0
 10 40  1  0  0  0  0
 11 13  1  0  0  0  0
 11 14  1  0  0  0  0
 11 41  1  0  0  0  0
 12 15  1  0  0  0  0
 12 42  1  0  0  0  0
 13 43  1  0  0  0  0
 13 44  1  0  0  0  0
 14 23  1  0  0  0  0
 14 45  1  0  0  0  0
 14 46  1  0  0  0  0
 15 19  2  0  0  0  0
 15 22  1  0  0  0  0
 16 47  1  0  0  0  0
 16 48  1  0  0  0  0
 17 18  1  0  0  0  0
 17 20  1  0  0  0  0
 17 25  1  6  0  0  0
 17 49  1  0  0  0  0
 18 19  1  0  0  0  0
 18 21  2  0  0  0  0
 19 50  1  0  0  0  0
 20 26  1  1  0  0  0
 20 51  1  0  0  0  0
 21 24  1  0  0  0  0
 22 24  2  0  0  0  0
 22 52  1  0  0  0  0
 23 27  2  0  0  0  0
 23 28  1  0  0  0  0
 25 53  1  0  0  0  0
 25 54  1  0  0  0  0
 26 29  2  0  0  0  0
 26 30  1  0  0  0  0
 27 31  1  0  0  0  0
 27 56  1  0  0  0  0
 28 32  2  0  0  0  0
 28 57  1  0  0  0  0
 29 34  1  0  0  0  0
 29 58  1  0  0  0  0
 30 35  2  0  0  0  0
 30 59  1  0  0  0  0
 31 33  2  0  0  0  0
 32 33  1  0  0  0  0
 32 60  1  0  0  0  0
 34 37  2  0  0  0  0
 35 37  1  0  0  0  0
 35 62  1  0  0  0  0
 36 63  1  0  0  0  0
 36 64  1  0  0  0  0
 36 65  1  0  0  0  0
 38 67  1  0  0  0  0
 38 68  1  0  0  0  0
 38 69  1  0  0  0  0
 39 71  1  0  0  0  0
 39 72  1  0  0  0  0
 39 73  1  0  0  0  0
M  END
> <PUBCHEM_COMPOUND_CID>
21722972

> <PUBCHEM_COMPOUND_CANONICALIZED>
1

> <PUBCHEM_CACTVS_COMPLEXITY>
769

> <PUBCHEM_CACTVS_HBOND_ACCEPTOR>
9

> <PUBCHEM_CACTVS_HBOND_DONOR>
4

> <PUBCHEM_CACTVS_ROTATABLE_BOND>
9

> <PUBCHEM_CACTVS_SUBSKEYS>
AAADcfB4PAAAAAAAAAAAAAAAAAAAASJAAAAwYMAAAAAAAEgBUAAAGgAACAAADRSgmAIyBoAABgCAAiBCAAACCAAgIAAIiAAGiIgNNiKGMRqCeCOlwBELuAfA4PwOoAADAAAIQABAAAYAABCAAAAAAAAAAA==

> <PUBCHEM_IUPAC_OPENEYE_NAME>
4-[[5-[(2S,3R)-2-(4-hydroxy-3-methoxy-phenyl)-3-(hydroxymethyl)-7-methoxy-2,3-dihydrobenzofuran-5-yl]-4-(hydroxymethyl)tetrahydrofuran-3-yl]methyl]-2-methoxy-phenol

> <PUBCHEM_IUPAC_CAS_NAME>
4-[[5-[(2S,3R)-2-(4-hydroxy-3-methoxyphenyl)-3-(hydroxymethyl)-7-methoxy-2,3-dihydrobenzofuran-5-yl]-4-(hydroxymethyl)-3-oxolanyl]methyl]-2-methoxyphenol

> <PUBCHEM_IUPAC_NAME_MARKUP>
4-[[5-[(2<I>S</I>,3<I>R</I>)-2-(4-hydroxy-3-methoxyphenyl)-3-(hydroxymethyl)-7-methoxy-2,3-dihydro-1-benzofuran-5-yl]-4-(hydroxymethyl)oxolan-3-yl]methyl]-2-methoxyphenol

> <PUBCHEM_IUPAC_NAME>
4-[[5-[(2S,3R)-2-(4-hydroxy-3-methoxyphenyl)-3-(hydroxymethyl)-7-methoxy-2,3-dihydro-1-benzofuran-5-yl]-4-(hydroxymethyl)oxolan-3-yl]methyl]-2-methoxyphenol

> <PUBCHEM_IUPAC_SYSTEMATIC_NAME>
4-[[4-(hydroxymethyl)-5-[(2S,3R)-3-(hydroxymethyl)-7-methoxy-2-(3-methoxy-4-oxidanyl-phenyl)-2,3-dihydro-1-benzofuran-5-yl]oxolan-3-yl]methyl]-2-methoxy-phenol

> <PUBCHEM_IUPAC_TRADITIONAL_NAME>
4-[[5-[(2S,3R)-2-(4-hydroxy-3-methoxy-phenyl)-7-methoxy-3-methylol-coumaran-5-yl]-4-methylol-tetrahydrofuran-3-yl]methyl]-2-methoxy-phenol

> <PUBCHEM_IUPAC_INCHI>
InChI=1S/C30H34O9/c1-35-25-9-16(4-6-23(25)33)8-19-15-38-28(21(19)13-31)18-10-20-22(14-32)29(39-30(20)27(12-18)37-3)17-5-7-24(34)26(11-17)36-2/h4-7,9-12,19,21-22,28-29,31-34H,8,13-15H2,1-3H3/t19?,21?,22-,28?,29+/m0/s1

> <PUBCHEM_IUPAC_INCHIKEY>
LCCNMOHABIHIBH-VHHNREBLSA-N

> <PUBCHEM_XLOGP3_AA>
3

> <PUBCHEM_EXACT_MASS>
538.22028266

> <PUBCHEM_MOLECULAR_FORMULA>
C30H34O9

> <PUBCHEM_MOLECULAR_WEIGHT>
538.6

> <PUBCHEM_OPENEYE_CAN_SMILES>
COC1=CC(=CC2=C1OC(C2CO)C3=CC(=C(C=C3)O)OC)C4C(C(CO4)CC5=CC(=C(C=C5)O)OC)CO

> <PUBCHEM_OPENEYE_ISO_SMILES>
COC1=CC(=CC2=C1O[C@@H]([C@H]2CO)C3=CC(=C(C=C3)O)OC)C4C(C(CO4)CC5=CC(=C(C=C5)O)OC)CO

> <PUBCHEM_CACTVS_TPSA>
127

> <PUBCHEM_MONOISOTOPIC_WEIGHT>
538.22028266

> <PUBCHEM_TOTAL_CHARGE>
0

> <PUBCHEM_HEAVY_ATOM_COUNT>
39

> <PUBCHEM_ATOM_DEF_STEREO_COUNT>
2

> <PUBCHEM_ATOM_UDEF_STEREO_COUNT>
3

> <PUBCHEM_BOND_DEF_STEREO_COUNT>
0

> <PUBCHEM_BOND_UDEF_STEREO_COUNT>
0

> <PUBCHEM_ISOTOPIC_ATOM_COUNT>
0

> <PUBCHEM_COMPONENT_COUNT>
1

> <PUBCHEM_CACTVS_TAUTO_COUNT>
-1

> <PUBCHEM_COORDINATE_TYPE>
1
5
255

> <PUBCHEM_BONDANNOTATIONS>
10  16  3
11  14  3
12  15  3
15  19  8
15  22  8
17  25  6
18  19  8
18  21  8
20  26  5
21  24  8
22  24  8
23  27  8
23  28  8
26  29  8
26  30  8
27  31  8
28  32  8
29  34  8
30  35  8
31  33  8
32  33  8
34  37  8
35  37  8

$$$$
