 
  -OEChem-10192104072D

 83 92  0     0  0  0  0  0  0999 V2000
    4.2793   -1.1897    0.0000 O   0  0  0  0  0  0  0  0  0  0  0  0
    5.9998   -4.1963    0.0000 O   0  0  0  0  0  0  0  0  0  0  0  0
    4.2639   -5.1896    0.0000 O   0  0  0  0  0  0  0  0  0  0  0  0
    2.5434   -2.1830    0.0000 O   0  0  0  0  0  0  0  0  0  0  0  0
    2.5357   -4.1830    0.0000 O   0  0  0  0  0  0  0  0  0  0  0  0
    7.7434   -1.2030    0.0000 C   0  0  0  0  0  0  0  0  0  0  0  0
    7.7396   -2.2030    0.0000 C   0  0  0  0  0  0  0  0  0  0  0  0
    6.8793   -0.6997    0.0000 C   0  0  0  0  0  0  0  0  0  0  0  0
    6.0075   -2.1963    0.0000 C   0  0  0  0  0  0  0  0  0  0  0  0
    6.8716   -2.6997    0.0000 C   0  0  0  0  0  0  0  0  0  0  0  0
    6.0114   -1.1963    0.0000 C   0  0  0  0  0  0  0  0  0  0  0  0
    8.6114   -0.7064    0.0000 C   0  0  0  0  0  0  0  0  0  0  0  0
   13.0134    0.8008    0.0000 C   0  0  0  0  0  0  0  0  0  0  0  0
   13.8794    2.3008    0.0000 C   0  0  0  0  0  0  0  0  0  0  0  0
   14.7454    1.8008    0.0000 C   0  0  0  0  0  0  0  0  0  0  0  0
   13.8794    0.3008    0.0000 C   0  0  0  0  0  0  0  0  0  0  0  0
   12.1473    0.3008    0.0000 C   0  0  0  0  0  0  0  0  0  0  0  0
   14.7454    0.8008    0.0000 C   0  0  0  0  0  0  0  0  0  0  0  0
   10.3434   -0.7130    0.0000 C   0  0  0  0  0  0  0  0  0  0  0  0
   10.3473    0.2870    0.0000 C   0  0  0  0  0  0  0  0  0  0  0  0
   13.0134    1.8008    0.0000 C   0  0  0  0  0  0  0  0  0  0  0  0
    9.4754   -1.2097    0.0000 C   0  0  0  0  0  0  0  0  0  0  0  0
    5.1396   -2.6930    0.0000 C   0  0  0  0  0  0  0  0  0  0  0  0
   13.8633    3.3424    0.0000 C   0  0  0  0  0  0  0  0  0  0  0  0
   11.2432    0.8182    0.0000 C   0  0  0  0  0  0  0  0  0  0  0  0
    8.6152    0.2936    0.0000 C   0  0  0  0  0  0  0  0  0  0  0  0
    8.6476   -2.7134    0.0000 C   0  0  0  0  0  0  0  0  0  0  0  0
    6.8994    0.3418    0.0000 C   0  0  0  0  0  0  0  0  0  0  0  0
    6.8515   -3.7411    0.0000 C   0  0  0  0  0  0  0  0  0  0  0  0
    5.1033   -0.6860    0.0000 C   0  0  0  0  0  0  0  0  0  0  0  0
    9.4832    0.7903    0.0000 C   0  0  0  0  0  0  0  0  0  0  0  0
   12.1433   -0.7408    0.0000 C   0  0  0  0  0  0  0  0  0  0  0  0
   11.2353   -1.2511    0.0000 C   0  0  0  0  0  0  0  0  0  0  0  0
   14.7614    3.8701    0.0000 C   0  0  0  0  0  0  0  0  0  0  0  0
   15.6554    2.3077    0.0000 C   0  0  0  0  0  0  0  0  0  0  0  0
   13.8633   -0.7407    0.0000 C   0  0  0  0  0  0  0  0  0  0  0  0
   15.6554    0.2940    0.0000 C   0  0  0  0  0  0  0  0  0  0  0  0
   15.6634    3.3493    0.0000 C   0  0  0  0  0  0  0  0  0  0  0  0
    8.6516   -3.7550    0.0000 C   0  0  0  0  0  0  0  0  0  0  0  0
    6.0034    0.8730    0.0000 C   0  0  0  0  0  0  0  0  0  0  0  0
    7.7475   -4.2723    0.0000 C   0  0  0  0  0  0  0  0  0  0  0  0
    5.0993    0.3556    0.0000 C   0  0  0  0  0  0  0  0  0  0  0  0
    4.2755   -2.1896    0.0000 C   0  0  0  0  0  0  0  0  0  0  0  0
    5.1357   -3.6930    0.0000 C   0  0  0  0  0  0  0  0  0  0  0  0
   12.9114    3.8630    0.0000 C   0  0  0  0  0  0  0  0  0  0  0  0
   14.7614   -1.2684    0.0000 C   0  0  0  0  0  0  0  0  0  0  0  0
   15.6634   -0.7476    0.0000 C   0  0  0  0  0  0  0  0  0  0  0  0
   14.7697    4.9551    0.0000 C   0  0  0  0  0  0  0  0  0  0  0  0
    4.2678   -4.1896    0.0000 C   0  0  0  0  0  0  0  0  0  0  0  0
    3.4075   -2.6863    0.0000 C   0  0  0  0  0  0  0  0  0  0  0  0
   12.8947    4.9478    0.0000 C   0  0  0  0  0  0  0  0  0  0  0  0
   13.8301    5.4976    0.0000 C   0  0  0  0  0  0  0  0  0  0  0  0
    3.4037   -3.6863    0.0000 C   0  0  0  0  0  0  0  0  0  0  0  0
   12.4764    2.1108    0.0000 H   0  0  0  0  0  0  0  0  0  0  0  0
    9.4731   -1.8297    0.0000 H   0  0  0  0  0  0  0  0  0  0  0  0
   11.2385    1.4382    0.0000 H   0  0  0  0  0  0  0  0  0  0  0  0
    8.0795    0.6057    0.0000 H   0  0  0  0  0  0  0  0  0  0  0  0
    9.1821   -2.3992    0.0000 H   0  0  0  0  0  0  0  0  0  0  0  0
    7.4410    0.6434    0.0000 H   0  0  0  0  0  0  0  0  0  0  0  0
    6.3099   -4.0428    0.0000 H   0  0  0  0  0  0  0  0  0  0  0  0
    4.5688   -1.0001    0.0000 H   0  0  0  0  0  0  0  0  0  0  0  0
    9.4856    1.4103    0.0000 H   0  0  0  0  0  0  0  0  0  0  0  0
   12.6778   -1.0549    0.0000 H   0  0  0  0  0  0  0  0  0  0  0  0
   11.2257   -1.8711    0.0000 H   0  0  0  0  0  0  0  0  0  0  0  0
   16.1887    1.9915    0.0000 H   0  0  0  0  0  0  0  0  0  0  0  0
   13.3228   -1.0444    0.0000 H   0  0  0  0  0  0  0  0  0  0  0  0
   16.1887    0.6102    0.0000 H   0  0  0  0  0  0  0  0  0  0  0  0
   16.2016    3.6572    0.0000 H   0  0  0  0  0  0  0  0  0  0  0  0
    9.1886   -4.0650    0.0000 H   0  0  0  0  0  0  0  0  0  0  0  0
    6.0082    1.4930    0.0000 H   0  0  0  0  0  0  0  0  0  0  0  0
    7.7428   -4.8923    0.0000 H   0  0  0  0  0  0  0  0  0  0  0  0
    4.5624    0.6656    0.0000 H   0  0  0  0  0  0  0  0  0  0  0  0
   12.3805    3.5427    0.0000 H   0  0  0  0  0  0  0  0  0  0  0  0
   14.7590   -1.8884    0.0000 H   0  0  0  0  0  0  0  0  0  0  0  0
   16.2016   -1.0555    0.0000 H   0  0  0  0  0  0  0  0  0  0  0  0
   15.3078    5.2630    0.0000 H   0  0  0  0  0  0  0  0  0  0  0  0
   12.3542    5.2516    0.0000 H   0  0  0  0  0  0  0  0  0  0  0  0
   13.8277    6.1176    0.0000 H   0  0  0  0  0  0  0  0  0  0  0  0
    3.7436   -0.8776    0.0000 H   0  0  0  0  0  0  0  0  0  0  0  0
    5.9974   -4.8163    0.0000 H   0  0  0  0  0  0  0  0  0  0  0  0
    3.7258   -5.4976    0.0000 H   0  0  0  0  0  0  0  0  0  0  0  0
    2.0053   -2.4909    0.0000 H   0  0  0  0  0  0  0  0  0  0  0  0
    2.0000   -3.8709    0.0000 H   0  0  0  0  0  0  0  0  0  0  0  0
  1 43  1  0  0  0  0
  1 79  1  0  0  0  0
  2 44  1  0  0  0  0
  2 80  1  0  0  0  0
  3 49  1  0  0  0  0
  3 81  1  0  0  0  0
  4 50  1  0  0  0  0
  4 82  1  0  0  0  0
  5 53  1  0  0  0  0
  5 83  1  0  0  0  0
  6  7  2  0  0  0  0
  6  8  1  0  0  0  0
  6 12  1  0  0  0  0
  7 10  1  0  0  0  0
  7 27  1  0  0  0  0
  8 11  1  0  0  0  0
  8 28  2  0  0  0  0
  9 10  2  0  0  0  0
  9 11  1  0  0  0  0
  9 23  1  0  0  0  0
 10 29  1  0  0  0  0
 11 30  2  0  0  0  0
 12 22  2  0  0  0  0
 12 26  1  0  0  0  0
 13 16  1  0  0  0  0
 13 17  1  0  0  0  0
 13 21  2  0  0  0  0
 14 15  2  0  0  0  0
 14 21  1  0  0  0  0
 14 24  1  0  0  0  0
 15 18  1  0  0  0  0
 15 35  1  0  0  0  0
 16 18  1  0  0  0  0
 16 36  2  0  0  0  0
 17 25  2  0  0  0  0
 17 32  1  0  0  0  0
 18 37  2  0  0  0  0
 19 20  2  0  0  0  0
 19 22  1  0  0  0  0
 19 33  1  0  0  0  0
 20 25  1  0  0  0  0
 20 31  1  0  0  0  0
 21 54  1  0  0  0  0
 22 55  1  0  0  0  0
 23 43  2  0  0  0  0
 23 44  1  0  0  0  0
 24 34  1  0  0  0  0
 24 45  2  0  0  0  0
 25 56  1  0  0  0  0
 26 31  2  0  0  0  0
 26 57  1  0  0  0  0
 27 39  2  0  0  0  0
 27 58  1  0  0  0  0
 28 40  1  0  0  0  0
 28 59  1  0  0  0  0
 29 41  2  0  0  0  0
 29 60  1  0  0  0  0
 30 42  1  0  0  0  0
 30 61  1  0  0  0  0
 31 62  1  0  0  0  0
 32 33  2  0  0  0  0
 32 63  1  0  0  0  0
 33 64  1  0  0  0  0
 34 38  1  0  0  0  0
 34 48  2  0  0  0  0
 35 38  2  0  0  0  0
 35 65  1  0  0  0  0
 36 46  1  0  0  0  0
 36 66  1  0  0  0  0
 37 47  1  0  0  0  0
 37 67  1  0  0  0  0
 38 68  1  0  0  0  0
 39 41  1  0  0  0  0
 39 69  1  0  0  0  0
 40 42  2  0  0  0  0
 40 70  1  0  0  0  0
 41 71  1  0  0  0  0
 42 72  1  0  0  0  0
 43 50  1  0  0  0  0
 44 49  2  0  0  0  0
 45 51  1  0  0  0  0
 45 73  1  0  0  0  0
 46 47  2  0  0  0  0
 46 74  1  0  0  0  0
 47 75  1  0  0  0  0
 48 52  1  0  0  0  0
 48 76  1  0  0  0  0
 49 53  1  0  0  0  0
 50 53  2  0  0  0  0
 51 52  2  0  0  0  0
 51 77  1  0  0  0  0
 52 78  1  0  0  0  0
M  END
> <PUBCHEM_COMPOUND_CID>
123991513

> <PUBCHEM_COMPOUND_CANONICALIZED>
1

> <PUBCHEM_CACTVS_COMPLEXITY>
1220

> <PUBCHEM_CACTVS_HBOND_ACCEPTOR>
5

> <PUBCHEM_CACTVS_HBOND_DONOR>
5

> <PUBCHEM_CACTVS_ROTATABLE_BOND>
3

> <PUBCHEM_CACTVS_SUBSKEYS>
AAADceB8OAAAAAAAAAAAAAAAAAAAAAAAAAAwYMGDAAAAAADBVAAAGgAACAAADASAmAAwBsAAAgCAAiBCAAACAAAgIAAIiAAEiIgJJyKCERKAcAElwBUJmAfA4PQO4QADCAAYQADCAAYQADCAAAAAAAAAAA==

> <PUBCHEM_IUPAC_OPENEYE_NAME>
6-[10-(6-chrysen-6-yl-2-naphthyl)-9-anthryl]benzene-1,2,3,4,5-pentol

> <PUBCHEM_IUPAC_CAS_NAME>
6-[10-[6-(6-chrysenyl)-2-naphthalenyl]-9-anthracenyl]benzene-1,2,3,4,5-pentol

> <PUBCHEM_IUPAC_NAME_MARKUP>
6-[10-(6-chrysen-6-ylnaphthalen-2-yl)anthracen-9-yl]benzene-1,2,3,4,5-pentol

> <PUBCHEM_IUPAC_NAME>
6-[10-(6-chrysen-6-ylnaphthalen-2-yl)anthracen-9-yl]benzene-1,2,3,4,5-pentol

> <PUBCHEM_IUPAC_SYSTEMATIC_NAME>
6-[10-(6-chrysen-6-ylnaphthalen-2-yl)anthracen-9-yl]benzene-1,2,3,4,5-pentol

> <PUBCHEM_IUPAC_TRADITIONAL_NAME>
6-[10-(6-chrysen-6-yl-2-naphthyl)-9-anthryl]benzene-1,2,3,4,5-pentol

> <PUBCHEM_IUPAC_INCHI>
InChI=1S/C48H30O5/c49-44-43(45(50)47(52)48(53)46(44)51)42-37-15-7-5-13-35(37)41(36-14-6-8-16-38(36)42)30-20-18-27-23-29(19-17-28(27)24-30)39-25-40-31-10-2-1-9-26(31)21-22-34(40)32-11-3-4-12-33(32)39/h1-25,49-53H

> <PUBCHEM_IUPAC_INCHIKEY>
QRNRBCROSGYZJJ-UHFFFAOYSA-N

> <PUBCHEM_XLOGP3_AA>
12.5

> <PUBCHEM_EXACT_MASS>
686.20932405

> <PUBCHEM_MOLECULAR_FORMULA>
C48H30O5

> <PUBCHEM_MOLECULAR_WEIGHT>
686.7

> <PUBCHEM_OPENEYE_CAN_SMILES>
C1=CC=C2C(=C1)C=CC3=C2C=C(C4=CC=CC=C34)C5=CC6=C(C=C5)C=C(C=C6)C7=C8C=CC=CC8=C(C9=CC=CC=C97)C1=C(C(=C(C(=C1O)O)O)O)O

> <PUBCHEM_OPENEYE_ISO_SMILES>
C1=CC=C2C(=C1)C=CC3=C2C=C(C4=CC=CC=C34)C5=CC6=C(C=C5)C=C(C=C6)C7=C8C=CC=CC8=C(C9=CC=CC=C97)C1=C(C(=C(C(=C1O)O)O)O)O

> <PUBCHEM_CACTVS_TPSA>
101

> <PUBCHEM_MONOISOTOPIC_WEIGHT>
686.20932405

> <PUBCHEM_TOTAL_CHARGE>
0

> <PUBCHEM_HEAVY_ATOM_COUNT>
53

> <PUBCHEM_ATOM_DEF_STEREO_COUNT>
0

> <PUBCHEM_ATOM_UDEF_STEREO_COUNT>
0

> <PUBCHEM_BOND_DEF_STEREO_COUNT>
0

> <PUBCHEM_BOND_UDEF_STEREO_COUNT>
0

> <PUBCHEM_ISOTOPIC_ATOM_COUNT>
0

> <PUBCHEM_COMPONENT_COUNT>
1

> <PUBCHEM_CACTVS_TAUTO_COUNT>
-1

> <PUBCHEM_COORDINATE_TYPE>
1
5
255

> <PUBCHEM_BONDANNOTATIONS>
10  29  8
11  30  8
12  22  8
12  26  8
13  16  8
13  21  8
14  15  8
14  21  8
14  24  8
15  18  8
15  35  8
16  18  8
16  36  8
17  25  8
17  32  8
18  37  8
19  20  8
19  22  8
19  33  8
20  25  8
20  31  8
23  43  8
23  44  8
24  34  8
24  45  8
26  31  8
27  39  8
28  40  8
29  41  8
30  42  8
32  33  8
34  38  8
34  48  8
35  38  8
36  46  8
37  47  8
39  41  8
40  42  8
43  50  8
44  49  8
45  51  8
46  47  8
48  52  8
49  53  8
50  53  8
51  52  8
6  7  8
6  8  8
7  10  8
7  27  8
8  11  8
8  28  8
9  10  8
9  11  8

$$$$
