 
  -OEChem-10192104422D

 60 62  0     1  0  0  0  0  0999 V2000
    4.2690   -2.2500    0.0000 O   0  0  0  0  0  0  0  0  0  0  0  0
    6.0010   -2.2500    0.0000 O   0  0  0  0  0  0  0  0  0  0  0  0
    4.2690   -5.2500    0.0000 O   0  0  0  0  0  0  0  0  0  0  0  0
    2.5369   -4.2500    0.0000 O   0  0  0  0  0  0  0  0  0  0  0  0
    6.0010   -4.2500    0.0000 O   0  0  0  0  0  0  0  0  0  0  0  0
    2.5369   -1.2500    0.0000 O   0  0  0  0  0  0  0  0  0  0  0  0
    7.7331   -1.2500    0.0000 O   0  0  0  0  0  0  0  0  0  0  0  0
    8.5991    2.2500    0.0000 O   0  0  0  0  0  0  0  0  0  0  0  0
    6.8671    3.2500    0.0000 O   0  0  0  0  0  0  0  0  0  0  0  0
    6.8671    4.2500    0.0000 O   0  0  0  0  0  0  0  0  0  0  0  0
    5.1350    5.2500    0.0000 O   0  0  0  0  0  0  0  0  0  0  0  0
    4.2690   -4.2500    0.0000 C   0  0  1  0  0  0  0  0  0  0  0  0
    3.4030   -3.7500    0.0000 C   0  0  1  0  0  0  0  0  0  0  0  0
    5.1350   -3.7500    0.0000 C   0  0  2  0  0  0  0  0  0  0  0  0
    3.4030   -2.7500    0.0000 C   0  0  1  0  0  0  0  0  0  0  0  0
    5.1350   -2.7500    0.0000 C   0  0  1  0  0  0  0  0  0  0  0  0
    2.5369   -2.2500    0.0000 C   0  0  0  0  0  0  0  0  0  0  0  0
    6.0010   -1.2500    0.0000 C   0  0  1  0  0  0  0  0  0  0  0  0
    6.8671   -0.7500    0.0000 C   0  0  1  0  0  0  0  0  0  0  0  0
    5.1350   -0.7500    0.0000 C   0  0  0  0  0  0  0  0  0  0  0  0
    6.8671    0.2500    0.0000 C   0  0  0  0  0  0  0  0  0  0  0  0
    7.7331    0.7500    0.0000 C   0  0  0  0  0  0  0  0  0  0  0  0
    6.0010    0.7500    0.0000 C   0  0  0  0  0  0  0  0  0  0  0  0
    5.1350    0.2500    0.0000 C   0  0  0  0  0  0  0  0  0  0  0  0
    7.7331    1.7500    0.0000 C   0  0  0  0  0  0  0  0  0  0  0  0
    6.0010    1.7500    0.0000 C   0  0  0  0  0  0  0  0  0  0  0  0
    6.8671    2.2500    0.0000 C   0  0  0  0  0  0  0  0  0  0  0  0
    5.1350    1.2500    0.0000 C   0  0  0  0  0  0  0  0  0  0  0  0
    5.1350    2.2500    0.0000 C   0  0  0  0  0  0  0  0  0  0  0  0
    6.0010    2.7500    0.0000 C   0  0  0  0  0  0  0  0  0  0  0  0
    4.2690    2.7500    0.0000 C   0  0  0  0  0  0  0  0  0  0  0  0
    6.0010    3.7500    0.0000 C   0  0  0  0  0  0  0  0  0  0  0  0
    4.2690    3.7500    0.0000 C   0  0  0  0  0  0  0  0  0  0  0  0
    5.1350    4.2500    0.0000 C   0  0  0  0  0  0  0  0  0  0  0  0
    3.7320   -4.5600    0.0000 H   0  0  0  0  0  0  0  0  0  0  0  0
    3.4030   -4.3700    0.0000 H   0  0  0  0  0  0  0  0  0  0  0  0
    5.1350   -4.3700    0.0000 H   0  0  0  0  0  0  0  0  0  0  0  0
    3.4030   -2.1300    0.0000 H   0  0  0  0  0  0  0  0  0  0  0  0
    5.1350   -2.1300    0.0000 H   0  0  0  0  0  0  0  0  0  0  0  0
    1.9264   -2.1423    0.0000 H   0  0  0  0  0  0  0  0  0  0  0  0
    2.3249   -2.8326    0.0000 H   0  0  0  0  0  0  0  0  0  0  0  0
    6.5380   -1.5600    0.0000 H   0  0  0  0  0  0  0  0  0  0  0  0
    7.4040   -0.4400    0.0000 H   0  0  0  0  0  0  0  0  0  0  0  0
    3.7320   -5.5600    0.0000 H   0  0  0  0  0  0  0  0  0  0  0  0
    2.0000   -3.9400    0.0000 H   0  0  0  0  0  0  0  0  0  0  0  0
    6.0010   -4.8700    0.0000 H   0  0  0  0  0  0  0  0  0  0  0  0
    4.5244   -0.6423    0.0000 H   0  0  0  0  0  0  0  0  0  0  0  0
    4.9230   -1.3326    0.0000 H   0  0  0  0  0  0  0  0  0  0  0  0
    2.0000   -0.9400    0.0000 H   0  0  0  0  0  0  0  0  0  0  0  0
    8.2700   -0.9400    0.0000 H   0  0  0  0  0  0  0  0  0  0  0  0
    8.2700    0.4400    0.0000 H   0  0  0  0  0  0  0  0  0  0  0  0
    5.4641    0.4400    0.0000 H   0  0  0  0  0  0  0  0  0  0  0  0
    5.4641    2.0600    0.0000 H   0  0  0  0  0  0  0  0  0  0  0  0
    9.1360    1.9400    0.0000 H   0  0  0  0  0  0  0  0  0  0  0  0
    7.4040    3.5600    0.0000 H   0  0  0  0  0  0  0  0  0  0  0  0
    6.5380    2.4400    0.0000 H   0  0  0  0  0  0  0  0  0  0  0  0
    3.7320    2.4400    0.0000 H   0  0  0  0  0  0  0  0  0  0  0  0
    3.7320    4.0600    0.0000 H   0  0  0  0  0  0  0  0  0  0  0  0
    6.8671    4.8700    0.0000 H   0  0  0  0  0  0  0  0  0  0  0  0
    4.5981    5.5600    0.0000 H   0  0  0  0  0  0  0  0  0  0  0  0
  1 15  1  0  0  0  0
  1 16  1  0  0  0  0
 16  2  1  1  0  0  0
 18  2  1  6  0  0  0
 12  3  1  1  0  0  0
  3 44  1  0  0  0  0
 13  4  1  6  0  0  0
  4 45  1  0  0  0  0
 14  5  1  6  0  0  0
  5 46  1  0  0  0  0
  6 17  1  0  0  0  0
  6 49  1  0  0  0  0
 19  7  1  1  0  0  0
  7 50  1  0  0  0  0
  8 25  1  0  0  0  0
  8 54  1  0  0  0  0
  9 27  1  0  0  0  0
  9 55  1  0  0  0  0
 10 32  1  0  0  0  0
 10 59  1  0  0  0  0
 11 34  1  0  0  0  0
 11 60  1  0  0  0  0
 12 13  1  0  0  0  0
 12 14  1  0  0  0  0
 12 35  1  0  0  0  0
 13 15  1  0  0  0  0
 13 36  1  0  0  0  0
 14 16  1  0  0  0  0
 14 37  1  0  0  0  0
 15 17  1  1  0  0  0
 15 38  1  0  0  0  0
 16 39  1  0  0  0  0
 17 40  1  0  0  0  0
 17 41  1  0  0  0  0
 18 19  1  0  0  0  0
 18 20  1  0  0  0  0
 18 42  1  0  0  0  0
 19 21  1  0  0  0  0
 19 43  1  0  0  0  0
 20 24  1  0  0  0  0
 20 47  1  0  0  0  0
 20 48  1  0  0  0  0
 21 22  2  0  0  0  0
 21 23  1  0  0  0  0
 22 25  1  0  0  0  0
 22 51  1  0  0  0  0
 23 26  2  0  0  0  0
 23 52  1  0  0  0  0
 24 28  3  0  0  0  0
 25 27  2  0  0  0  0
 26 27  1  0  0  0  0
 26 53  1  0  0  0  0
 28 29  1  0  0  0  0
 29 30  2  0  0  0  0
 29 31  1  0  0  0  0
 30 32  1  0  0  0  0
 30 56  1  0  0  0  0
 31 33  2  0  0  0  0
 31 57  1  0  0  0  0
 32 34  2  0  0  0  0
 33 34  1  0  0  0  0
 33 58  1  0  0  0  0
M  END
> <PUBCHEM_COMPOUND_CID>
10648327

> <PUBCHEM_COMPOUND_CANONICALIZED>
1

> <PUBCHEM_CACTVS_COMPLEXITY>
708

> <PUBCHEM_CACTVS_HBOND_ACCEPTOR>
11

> <PUBCHEM_CACTVS_HBOND_DONOR>
9

> <PUBCHEM_CACTVS_ROTATABLE_BOND>
7

> <PUBCHEM_CACTVS_SUBSKEYS>
AAADceB4PAAAAAAAAAAAAAAAAAAAAAAAAAA0YIAAAAAAAAABQAAAGgAACAAADBSwmAMwDoAABgDAEiBCAAgCAAAgIAAIiAAGiIgZNiKCERKicAElwBEPmAfA4LwOIAABAAAAQABAAAIAAACAAAAAAAAAAA==

> <PUBCHEM_IUPAC_OPENEYE_NAME>
(2R,3R,4S,5S,6R)-2-[(1R)-4-(3,4-dihydroxyphenyl)-1-[(R)-(3,4-dihydroxyphenyl)-hydroxy-methyl]but-3-ynoxy]-6-(hydroxymethyl)tetrahydropyran-3,4,5-triol

> <PUBCHEM_IUPAC_CAS_NAME>
(2R,3R,4S,5S,6R)-2-[(1R,2R)-1,5-bis(3,4-dihydroxyphenyl)-1-hydroxypent-4-yn-2-yl]oxy-6-(hydroxymethyl)oxane-3,4,5-triol

> <PUBCHEM_IUPAC_NAME_MARKUP>
(2<I>R</I>,3<I>R</I>,4<I>S</I>,5<I>S</I>,6<I>R</I>)-2-[(1<I>R</I>,2<I>R</I>)-1,5-bis(3,4-dihydroxyphenyl)-1-hydroxypent-4-yn-2-yl]oxy-6-(hydroxymethyl)oxane-3,4,5-triol

> <PUBCHEM_IUPAC_NAME>
(2R,3R,4S,5S,6R)-2-[(1R,2R)-1,5-bis(3,4-dihydroxyphenyl)-1-hydroxypent-4-yn-2-yl]oxy-6-(hydroxymethyl)oxane-3,4,5-triol

> <PUBCHEM_IUPAC_SYSTEMATIC_NAME>
(2R,3R,4S,5S,6R)-2-[(1R,2R)-1,5-bis[3,4-bis(oxidanyl)phenyl]-1-oxidanyl-pent-4-yn-2-yl]oxy-6-(hydroxymethyl)oxane-3,4,5-triol

> <PUBCHEM_IUPAC_TRADITIONAL_NAME>
(2R,3R,4S,5S,6R)-2-[(1R)-4-(3,4-dihydroxyphenyl)-1-[(R)-(3,4-dihydroxyphenyl)-hydroxy-methyl]but-3-ynoxy]-6-methylol-tetrahydropyran-3,4,5-triol

> <PUBCHEM_IUPAC_INCHI>
InChI=1S/C23H26O11/c24-10-18-20(30)21(31)22(32)23(34-18)33-17(19(29)12-5-7-14(26)16(28)9-12)3-1-2-11-4-6-13(25)15(27)8-11/h4-9,17-32H,3,10H2/t17-,18-,19-,20-,21+,22-,23-/m1/s1

> <PUBCHEM_IUPAC_INCHIKEY>
STEZVHWESYNLGU-XRWAXFQNSA-N

> <PUBCHEM_XLOGP3_AA>
-0.2

> <PUBCHEM_EXACT_MASS>
478.14751164

> <PUBCHEM_MOLECULAR_FORMULA>
C23H26O11

> <PUBCHEM_MOLECULAR_WEIGHT>
478.4

> <PUBCHEM_OPENEYE_CAN_SMILES>
C1=CC(=C(C=C1C#CCC(C(C2=CC(=C(C=C2)O)O)O)OC3C(C(C(C(O3)CO)O)O)O)O)O

> <PUBCHEM_OPENEYE_ISO_SMILES>
C1=CC(=C(C=C1C#CC[C@H]([C@@H](C2=CC(=C(C=C2)O)O)O)O[C@H]3[C@@H]([C@H]([C@@H]([C@H](O3)CO)O)O)O)O)O

> <PUBCHEM_CACTVS_TPSA>
201

> <PUBCHEM_MONOISOTOPIC_WEIGHT>
478.14751164

> <PUBCHEM_TOTAL_CHARGE>
0

> <PUBCHEM_HEAVY_ATOM_COUNT>
34

> <PUBCHEM_ATOM_DEF_STEREO_COUNT>
7

> <PUBCHEM_ATOM_UDEF_STEREO_COUNT>
0

> <PUBCHEM_BOND_DEF_STEREO_COUNT>
0

> <PUBCHEM_BOND_UDEF_STEREO_COUNT>
0

> <PUBCHEM_ISOTOPIC_ATOM_COUNT>
0

> <PUBCHEM_COMPONENT_COUNT>
1

> <PUBCHEM_CACTVS_TAUTO_COUNT>
51

> <PUBCHEM_COORDINATE_TYPE>
1
5
255

> <PUBCHEM_BONDANNOTATIONS>
15  17  5
16  2  5
18  2  6
21  22  8
21  23  8
22  25  8
23  26  8
25  27  8
26  27  8
29  30  8
29  31  8
12  3  5
30  32  8
31  33  8
32  34  8
33  34  8
13  4  6
14  5  6
19  7  5

$$$$
