 
  -OEChem-10192103442D

 25 25  0     1  0  0  0  0  0999 V2000
    4.3802   -1.1146    0.0000 O   0  0  0  0  0  0  0  0  0  0  0  0
    5.6906    1.4342    0.0000 O   0  0  0  0  0  0  0  0  0  0  0  0
    5.6906   -0.2978    0.0000 O   0  0  0  0  0  0  0  0  0  0  0  0
    4.1906    0.5682    0.0000 C   0  0  3  0  0  0  0  0  0  0  0  0
    3.7568   -0.3327    0.0000 C   0  0  3  0  0  0  0  0  0  0  0  0
    3.7568    1.4692    0.0000 C   0  0  0  0  0  0  0  0  0  0  0  0
    2.7818   -0.5553    0.0000 C   0  0  0  0  0  0  0  0  0  0  0  0
    2.7818    1.6917    0.0000 C   0  0  0  0  0  0  0  0  0  0  0  0
    2.0000    0.0682    0.0000 C   0  0  0  0  0  0  0  0  0  0  0  0
    2.0000    1.0682    0.0000 C   0  0  0  0  0  0  0  0  0  0  0  0
    5.1906    0.5682    0.0000 C   0  0  0  0  0  0  0  0  0  0  0  0
    4.5205    1.0932    0.0000 H   0  0  0  0  0  0  0  0  0  0  0  0
    4.3729   -0.2633    0.0000 H   0  0  0  0  0  0  0  0  0  0  0  0
    4.3612    1.6072    0.0000 H   0  0  0  0  0  0  0  0  0  0  0  0
    3.7568    2.0892    0.0000 H   0  0  0  0  0  0  0  0  0  0  0  0
    2.2971   -0.9418    0.0000 H   0  0  0  0  0  0  0  0  0  0  0  0
    3.0508   -1.1139    0.0000 H   0  0  0  0  0  0  0  0  0  0  0  0
    3.0508    2.2503    0.0000 H   0  0  0  0  0  0  0  0  0  0  0  0
    2.2971    2.0783    0.0000 H   0  0  0  0  0  0  0  0  0  0  0  0
    1.3955    0.2062    0.0000 H   0  0  0  0  0  0  0  0  0  0  0  0
    1.7310   -0.4904    0.0000 H   0  0  0  0  0  0  0  0  0  0  0  0
    1.7310    1.6268    0.0000 H   0  0  0  0  0  0  0  0  0  0  0  0
    1.3955    0.9303    0.0000 H   0  0  0  0  0  0  0  0  0  0  0  0
    4.1537   -1.6917    0.0000 H   0  0  0  0  0  0  0  0  0  0  0  0
    6.3106    1.4342    0.0000 H   0  0  0  0  0  0  0  0  0  0  0  0
  1  5  1  0  0  0  0
  1 24  1  0  0  0  0
  2 11  1  0  0  0  0
  2 25  1  0  0  0  0
  3 11  2  0  0  0  0
  4  5  1  0  0  0  0
  4  6  1  0  0  0  0
  4 11  1  0  0  0  0
  4 12  1  0  0  0  0
  5  7  1  0  0  0  0
  5 13  1  0  0  0  0
  6  8  1  0  0  0  0
  6 14  1  0  0  0  0
  6 15  1  0  0  0  0
  7  9  1  0  0  0  0
  7 16  1  0  0  0  0
  7 17  1  0  0  0  0
  8 10  1  0  0  0  0
  8 18  1  0  0  0  0
  8 19  1  0  0  0  0
  9 10  1  0  0  0  0
  9 20  1  0  0  0  0
  9 21  1  0  0  0  0
 10 22  1  0  0  0  0
 10 23  1  0  0  0  0
M  END
> <PUBCHEM_COMPOUND_CID>
22347809

> <PUBCHEM_COMPOUND_CANONICALIZED>
1

> <PUBCHEM_CACTVS_COMPLEXITY>
144

> <PUBCHEM_CACTVS_HBOND_ACCEPTOR>
3

> <PUBCHEM_CACTVS_HBOND_DONOR>
2

> <PUBCHEM_CACTVS_ROTATABLE_BOND>
1

> <PUBCHEM_CACTVS_SUBSKEYS>
AAADccBwMAAAAAAAAAAAAAAAAAAAAAAAAAAAAAAABgAAAAAAAAAAGgAACAAADRSggAIACAAAAgAIAACQCAAAAAAAAAAAAAEAAAAAEBYAAAAAQAAFIAAAAAGIyOCOAAAAAAAAAAAAAAAAAAAAAAAAAAAAAA==

> <PUBCHEM_IUPAC_OPENEYE_NAME>
2-hydroxycycloheptanecarboxylic acid

> <PUBCHEM_IUPAC_CAS_NAME>
2-hydroxy-1-cycloheptanecarboxylic acid

> <PUBCHEM_IUPAC_NAME_MARKUP>
2-hydroxycycloheptane-1-carboxylic acid

> <PUBCHEM_IUPAC_NAME>
2-hydroxycycloheptane-1-carboxylic acid

> <PUBCHEM_IUPAC_SYSTEMATIC_NAME>
2-oxidanylcycloheptane-1-carboxylic acid

> <PUBCHEM_IUPAC_TRADITIONAL_NAME>
2-hydroxycycloheptanecarboxylic acid

> <PUBCHEM_IUPAC_INCHI>
InChI=1S/C8H14O3/c9-7-5-3-1-2-4-6(7)8(10)11/h6-7,9H,1-5H2,(H,10,11)

> <PUBCHEM_IUPAC_INCHIKEY>
MLKJHYOWDTXWCT-UHFFFAOYSA-N

> <PUBCHEM_XLOGP3_AA>
1.6

> <PUBCHEM_EXACT_MASS>
158.094294304

> <PUBCHEM_MOLECULAR_FORMULA>
C8H14O3

> <PUBCHEM_MOLECULAR_WEIGHT>
158.19

> <PUBCHEM_OPENEYE_CAN_SMILES>
C1CCC(C(CC1)O)C(=O)O

> <PUBCHEM_OPENEYE_ISO_SMILES>
C1CCC(C(CC1)O)C(=O)O

> <PUBCHEM_CACTVS_TPSA>
57.5

> <PUBCHEM_MONOISOTOPIC_WEIGHT>
158.094294304

> <PUBCHEM_TOTAL_CHARGE>
0

> <PUBCHEM_HEAVY_ATOM_COUNT>
11

> <PUBCHEM_ATOM_DEF_STEREO_COUNT>
0

> <PUBCHEM_ATOM_UDEF_STEREO_COUNT>
2

> <PUBCHEM_BOND_DEF_STEREO_COUNT>
0

> <PUBCHEM_BOND_UDEF_STEREO_COUNT>
0

> <PUBCHEM_ISOTOPIC_ATOM_COUNT>
0

> <PUBCHEM_COMPONENT_COUNT>
1

> <PUBCHEM_CACTVS_TAUTO_COUNT>
-1

> <PUBCHEM_COORDINATE_TYPE>
1
5
255

> <PUBCHEM_BONDANNOTATIONS>
5  1  3
4  11  3

$$$$
