 
  -OEChem-10192104232D

 56 57  0     0  0  0  0  0  0999 V2000
    3.3660    4.8476    0.0000 O   0  0  0  0  0  0  0  0  0  0  0  0
    9.1962   -3.5185    0.0000 O   0  0  0  0  0  0  0  0  0  0  0  0
    4.8660    3.9815    0.0000 O   0  0  0  0  0  0  0  0  0  0  0  0
    9.1962   -5.2505    0.0000 O   0  0  0  0  0  0  0  0  0  0  0  0
    6.8301    0.1155    0.0000 O   0  0  0  0  0  0  0  0  0  0  0  0
    3.3660    3.1155    0.0000 C   0  0  0  0  0  0  0  0  0  0  0  0
    7.6962   -4.3845    0.0000 C   0  0  0  0  0  0  0  0  0  0  0  0
    2.5000    3.6155    0.0000 C   0  0  0  0  0  0  0  0  0  0  0  0
    2.8660    2.2495    0.0000 C   0  0  0  0  0  0  0  0  0  0  0  0
    7.6962   -5.3845    0.0000 C   0  0  0  0  0  0  0  0  0  0  0  0
    6.6962   -4.3845    0.0000 C   0  0  0  0  0  0  0  0  0  0  0  0
    2.0000    2.7495    0.0000 C   0  0  0  0  0  0  0  0  0  0  0  0
    6.6962   -5.3845    0.0000 C   0  0  0  0  0  0  0  0  0  0  0  0
    4.2320    2.6155    0.0000 C   0  0  0  0  0  0  0  0  0  0  0  0
    7.6962   -3.3845    0.0000 C   0  0  0  0  0  0  0  0  0  0  0  0
    4.2320    1.6155    0.0000 C   0  0  0  0  0  0  0  0  0  0  0  0
    6.8301   -2.8845    0.0000 C   0  0  0  0  0  0  0  0  0  0  0  0
    3.8660    3.9815    0.0000 C   0  0  0  0  0  0  0  0  0  0  0  0
    8.6962   -4.3845    0.0000 C   0  0  0  0  0  0  0  0  0  0  0  0
    5.0981    1.1155    0.0000 C   0  0  0  0  0  0  0  0  0  0  0  0
    6.8301   -1.8845    0.0000 C   0  0  0  0  0  0  0  0  0  0  0  0
    5.0981    0.1155    0.0000 C   0  0  0  0  0  0  0  0  0  0  0  0
    5.9641   -1.3845    0.0000 C   0  0  0  0  0  0  0  0  0  0  0  0
    5.9641   -0.3845    0.0000 C   0  0  0  0  0  0  0  0  0  0  0  0
    2.8100    4.1524    0.0000 H   0  0  0  0  0  0  0  0  0  0  0  0
    1.9631    3.9255    0.0000 H   0  0  0  0  0  0  0  0  0  0  0  0
    2.5560    1.7126    0.0000 H   0  0  0  0  0  0  0  0  0  0  0  0
    3.4030    1.9395    0.0000 H   0  0  0  0  0  0  0  0  0  0  0  0
    7.6962   -6.0045    0.0000 H   0  0  0  0  0  0  0  0  0  0  0  0
    8.3162   -5.3845    0.0000 H   0  0  0  0  0  0  0  0  0  0  0  0
    6.6962   -3.7645    0.0000 H   0  0  0  0  0  0  0  0  0  0  0  0
    6.0762   -4.3845    0.0000 H   0  0  0  0  0  0  0  0  0  0  0  0
    1.4631    3.0595    0.0000 H   0  0  0  0  0  0  0  0  0  0  0  0
    1.6900    2.2125    0.0000 H   0  0  0  0  0  0  0  0  0  0  0  0
    6.0762   -5.3845    0.0000 H   0  0  0  0  0  0  0  0  0  0  0  0
    6.6962   -6.0045    0.0000 H   0  0  0  0  0  0  0  0  0  0  0  0
    4.8426    2.5078    0.0000 H   0  0  0  0  0  0  0  0  0  0  0  0
    4.4441    3.1981    0.0000 H   0  0  0  0  0  0  0  0  0  0  0  0
    8.3067   -3.4922    0.0000 H   0  0  0  0  0  0  0  0  0  0  0  0
    7.9082   -2.8019    0.0000 H   0  0  0  0  0  0  0  0  0  0  0  0
    3.6215    1.7232    0.0000 H   0  0  0  0  0  0  0  0  0  0  0  0
    4.0200    1.0329    0.0000 H   0  0  0  0  0  0  0  0  0  0  0  0
    6.2196   -2.7768    0.0000 H   0  0  0  0  0  0  0  0  0  0  0  0
    6.6181   -3.4671    0.0000 H   0  0  0  0  0  0  0  0  0  0  0  0
    5.7087    1.0078    0.0000 H   0  0  0  0  0  0  0  0  0  0  0  0
    5.3101    1.6981    0.0000 H   0  0  0  0  0  0  0  0  0  0  0  0
    7.4407   -1.9922    0.0000 H   0  0  0  0  0  0  0  0  0  0  0  0
    7.0422   -1.3019    0.0000 H   0  0  0  0  0  0  0  0  0  0  0  0
    4.4875    0.2232    0.0000 H   0  0  0  0  0  0  0  0  0  0  0  0
    4.8860   -0.4671    0.0000 H   0  0  0  0  0  0  0  0  0  0  0  0
    5.3535   -1.2768    0.0000 H   0  0  0  0  0  0  0  0  0  0  0  0
    5.7520   -1.9671    0.0000 H   0  0  0  0  0  0  0  0  0  0  0  0
    5.9641    0.2355    0.0000 H   0  0  0  0  0  0  0  0  0  0  0  0
    3.6760    5.3845    0.0000 H   0  0  0  0  0  0  0  0  0  0  0  0
    9.8162   -3.5185    0.0000 H   0  0  0  0  0  0  0  0  0  0  0  0
    6.8301    0.7355    0.0000 H   0  0  0  0  0  0  0  0  0  0  0  0
  1 18  1  0  0  0  0
  1 54  1  0  0  0  0
  2 19  1  0  0  0  0
  2 55  1  0  0  0  0
  3 18  2  0  0  0  0
  4 19  2  0  0  0  0
  5 24  1  0  0  0  0
  5 56  1  0  0  0  0
  6  8  1  0  0  0  0
  6  9  1  0  0  0  0
  6 14  1  0  0  0  0
  6 18  1  0  0  0  0
  7 10  1  0  0  0  0
  7 11  1  0  0  0  0
  7 15  1  0  0  0  0
  7 19  1  0  0  0  0
  8 12  1  0  0  0  0
  8 25  1  0  0  0  0
  8 26  1  0  0  0  0
  9 12  1  0  0  0  0
  9 27  1  0  0  0  0
  9 28  1  0  0  0  0
 10 13  1  0  0  0  0
 10 29  1  0  0  0  0
 10 30  1  0  0  0  0
 11 13  1  0  0  0  0
 11 31  1  0  0  0  0
 11 32  1  0  0  0  0
 12 33  1  0  0  0  0
 12 34  1  0  0  0  0
 13 35  1  0  0  0  0
 13 36  1  0  0  0  0
 14 16  1  0  0  0  0
 14 37  1  0  0  0  0
 14 38  1  0  0  0  0
 15 17  1  0  0  0  0
 15 39  1  0  0  0  0
 15 40  1  0  0  0  0
 16 20  1  0  0  0  0
 16 41  1  0  0  0  0
 16 42  1  0  0  0  0
 17 21  1  0  0  0  0
 17 43  1  0  0  0  0
 17 44  1  0  0  0  0
 20 22  1  0  0  0  0
 20 45  1  0  0  0  0
 20 46  1  0  0  0  0
 21 23  1  0  0  0  0
 21 47  1  0  0  0  0
 21 48  1  0  0  0  0
 22 24  1  0  0  0  0
 22 49  1  0  0  0  0
 22 50  1  0  0  0  0
 23 24  1  0  0  0  0
 23 51  1  0  0  0  0
 23 52  1  0  0  0  0
 24 53  1  0  0  0  0
M  END
> <PUBCHEM_COMPOUND_CID>
21932024

> <PUBCHEM_COMPOUND_CANONICALIZED>
1

> <PUBCHEM_CACTVS_COMPLEXITY>
397

> <PUBCHEM_CACTVS_HBOND_ACCEPTOR>
5

> <PUBCHEM_CACTVS_HBOND_DONOR>
3

> <PUBCHEM_CACTVS_ROTATABLE_BOND>
12

> <PUBCHEM_CACTVS_SUBSKEYS>
AAADcfB4OAAAAAAAAAAAAAAAAABgwAAAAAAAAAAAAAAAAAAAAAAAGgAACAAADhSggAIACAAAAgAIAACQCAAAAAAAAAAAAAEAAAAAEBIAAAAAQAAEAAAAAAGIyOCPAAAAAAAAAAAAAAAAAAAAAAAAAAAAAA==

> <PUBCHEM_IUPAC_OPENEYE_NAME>
1-[9-(1-carboxycyclobutyl)-5-hydroxy-nonyl]cyclobutanecarboxylic acid

> <PUBCHEM_IUPAC_CAS_NAME>
1-[9-(1-carboxycyclobutyl)-5-hydroxynonyl]-1-cyclobutanecarboxylic acid

> <PUBCHEM_IUPAC_NAME_MARKUP>
1-[9-(1-carboxycyclobutyl)-5-hydroxynonyl]cyclobutane-1-carboxylic acid

> <PUBCHEM_IUPAC_NAME>
1-[9-(1-carboxycyclobutyl)-5-hydroxynonyl]cyclobutane-1-carboxylic acid

> <PUBCHEM_IUPAC_SYSTEMATIC_NAME>
1-[9-(1-carboxycyclobutyl)-5-oxidanyl-nonyl]cyclobutane-1-carboxylic acid

> <PUBCHEM_IUPAC_TRADITIONAL_NAME>
1-[9-(1-carboxycyclobutyl)-5-hydroxy-nonyl]cyclobutanecarboxylic acid

> <PUBCHEM_IUPAC_INCHI>
InChI=1S/C19H32O5/c20-15(7-1-3-9-18(16(21)22)11-5-12-18)8-2-4-10-19(17(23)24)13-6-14-19/h15,20H,1-14H2,(H,21,22)(H,23,24)

> <PUBCHEM_IUPAC_INCHIKEY>
AIKFZECQSSCABG-UHFFFAOYSA-N

> <PUBCHEM_XLOGP3_AA>
3.6

> <PUBCHEM_EXACT_MASS>
340.22497412

> <PUBCHEM_MOLECULAR_FORMULA>
C19H32O5

> <PUBCHEM_MOLECULAR_WEIGHT>
340.5

> <PUBCHEM_OPENEYE_CAN_SMILES>
C1CC(C1)(CCCCC(CCCCC2(CCC2)C(=O)O)O)C(=O)O

> <PUBCHEM_OPENEYE_ISO_SMILES>
C1CC(C1)(CCCCC(CCCCC2(CCC2)C(=O)O)O)C(=O)O

> <PUBCHEM_CACTVS_TPSA>
94.8

> <PUBCHEM_MONOISOTOPIC_WEIGHT>
340.22497412

> <PUBCHEM_TOTAL_CHARGE>
0

> <PUBCHEM_HEAVY_ATOM_COUNT>
24

> <PUBCHEM_ATOM_DEF_STEREO_COUNT>
0

> <PUBCHEM_ATOM_UDEF_STEREO_COUNT>
0

> <PUBCHEM_BOND_DEF_STEREO_COUNT>
0

> <PUBCHEM_BOND_UDEF_STEREO_COUNT>
0

> <PUBCHEM_ISOTOPIC_ATOM_COUNT>
0

> <PUBCHEM_COMPONENT_COUNT>
1

> <PUBCHEM_CACTVS_TAUTO_COUNT>
-1

> <PUBCHEM_COORDINATE_TYPE>
1
5
255

$$$$
