 
  -OEChem-10192103482D

 35 36  0     1  0  0  0  0  0999 V2000
    6.4021   -2.8186    0.0000 P   0  0  0  0  0  0  0  0  0  0  0  0
    4.5411   -0.3540    0.0000 O   0  0  0  0  0  0  0  0  0  0  0  0
    2.6443   -2.1141    0.0000 O   0  0  0  0  0  0  0  0  0  0  0  0
    5.8144   -2.0096    0.0000 O   0  0  0  0  0  0  0  0  0  0  0  0
    5.4641    1.2337    0.0000 O   0  0  0  0  0  0  0  0  0  0  0  0
    3.7320    4.2337    0.0000 O   0  0  0  0  0  0  0  0  0  0  0  0
    7.3967   -2.7141    0.0000 O   0  0  0  0  0  0  0  0  0  0  0  0
    5.9954   -3.7322    0.0000 O   0  0  0  0  0  0  0  0  0  0  0  0
    3.7320    1.2337    0.0000 N   0  0  0  0  0  0  0  0  0  0  0  0
    4.5981    2.7337    0.0000 N   0  0  0  0  0  0  0  0  0  0  0  0
    3.2320   -1.3051    0.0000 C   0  0  3  0  0  0  0  0  0  0  0  0
    3.7320    0.2337    0.0000 C   0  0  1  0  0  0  0  0  0  0  0  0
    2.9230   -0.3540    0.0000 C   0  0  0  0  0  0  0  0  0  0  0  0
    4.2320   -1.3051    0.0000 C   0  0  1  0  0  0  0  0  0  0  0  0
    4.8198   -2.1141    0.0000 C   0  0  0  0  0  0  0  0  0  0  0  0
    2.8660    1.7337    0.0000 C   0  0  0  0  0  0  0  0  0  0  0  0
    4.5981    1.7337    0.0000 C   0  0  0  0  0  0  0  0  0  0  0  0
    2.8660    2.7337    0.0000 C   0  0  0  0  0  0  0  0  0  0  0  0
    3.7320    3.2337    0.0000 C   0  0  0  0  0  0  0  0  0  0  0  0
    2.0000    3.2337    0.0000 C   0  0  0  0  0  0  0  0  0  0  0  0
    3.5135   -1.8575    0.0000 H   0  0  0  0  0  0  0  0  0  0  0  0
    4.2845    0.5152    0.0000 H   0  0  0  0  0  0  0  0  0  0  0  0
    2.6130    0.1829    0.0000 H   0  0  0  0  0  0  0  0  0  0  0  0
    2.3566   -0.6062    0.0000 H   0  0  0  0  0  0  0  0  0  0  0  0
    4.8444   -1.2081    0.0000 H   0  0  0  0  0  0  0  0  0  0  0  0
    4.2626   -2.3859    0.0000 H   0  0  0  0  0  0  0  0  0  0  0  0
    4.9907   -2.7101    0.0000 H   0  0  0  0  0  0  0  0  0  0  0  0
    2.0277   -2.0493    0.0000 H   0  0  0  0  0  0  0  0  0  0  0  0
    2.3291    1.4237    0.0000 H   0  0  0  0  0  0  0  0  0  0  0  0
    5.1350    3.0437    0.0000 H   0  0  0  0  0  0  0  0  0  0  0  0
    2.3100    3.7707    0.0000 H   0  0  0  0  0  0  0  0  0  0  0  0
    1.4631    3.5437    0.0000 H   0  0  0  0  0  0  0  0  0  0  0  0
    1.6900    2.6968    0.0000 H   0  0  0  0  0  0  0  0  0  0  0  0
    7.7611   -3.2157    0.0000 H   0  0  0  0  0  0  0  0  0  0  0  0
    6.3598   -4.2337    0.0000 H   0  0  0  0  0  0  0  0  0  0  0  0
  1  4  1  0  0  0  0
  1  7  1  0  0  0  0
  1  8  1  0  0  0  0
  2 12  1  0  0  0  0
  2 14  1  0  0  0  0
  3 11  1  0  0  0  0
  3 28  1  0  0  0  0
  4 15  1  0  0  0  0
  5 17  2  0  0  0  0
  6 19  2  0  0  0  0
  7 34  1  0  0  0  0
  8 35  1  0  0  0  0
 12  9  1  6  0  0  0
  9 16  1  0  0  0  0
  9 17  1  0  0  0  0
 10 17  1  0  0  0  0
 10 19  1  0  0  0  0
 10 30  1  0  0  0  0
 11 13  1  0  0  0  0
 11 14  1  0  0  0  0
 11 21  1  0  0  0  0
 12 13  1  0  0  0  0
 12 22  1  0  0  0  0
 13 23  1  0  0  0  0
 13 24  1  0  0  0  0
 14 15  1  6  0  0  0
 14 25  1  0  0  0  0
 15 26  1  0  0  0  0
 15 27  1  0  0  0  0
 16 18  2  0  0  0  0
 16 29  1  0  0  0  0
 18 19  1  0  0  0  0
 18 20  1  0  0  0  0
 20 31  1  0  0  0  0
 20 32  1  0  0  0  0
 20 33  1  0  0  0  0
M  END
> <PUBCHEM_COMPOUND_CID>
130206801

> <PUBCHEM_COMPOUND_CANONICALIZED>
1

> <PUBCHEM_CACTVS_COMPLEXITY>
441

> <PUBCHEM_CACTVS_HBOND_ACCEPTOR>
7

> <PUBCHEM_CACTVS_HBOND_DONOR>
4

> <PUBCHEM_CACTVS_ROTATABLE_BOND>
4

> <PUBCHEM_CACTVS_SUBSKEYS>
AAADccBzOAIAAAAAAAAAAAAAAAAAASAAAAAgAAAAAAAAAAAAAAAAHgAQCCAADBThgAYDAAPABxCIAgFWUACAAAAAAAAAAAEIAECBEAIAgQAOQAAPByIDAMCwMAIAAAAAAAAAAAAAAAAAAAAAAAAAAAAAAA==

> <PUBCHEM_IUPAC_OPENEYE_NAME>
[(2R,5R)-3-hydroxy-5-(5-methyl-2,4-dioxo-pyrimidin-1-yl)tetrahydrofuran-2-yl]methyl dihydrogen phosphite

> <PUBCHEM_IUPAC_CAS_NAME>
[(2R,5R)-3-hydroxy-5-(5-methyl-2,4-dioxo-1-pyrimidinyl)-2-oxolanyl]methyl dihydrogen phosphite

> <PUBCHEM_IUPAC_NAME_MARKUP>
[(2<I>R</I>,5<I>R</I>)-3-hydroxy-5-(5-methyl-2,4-dioxopyrimidin-1-yl)oxolan-2-yl]methyl dihydrogen phosphite

> <PUBCHEM_IUPAC_NAME>
[(2R,5R)-3-hydroxy-5-(5-methyl-2,4-dioxopyrimidin-1-yl)oxolan-2-yl]methyl dihydrogen phosphite

> <PUBCHEM_IUPAC_SYSTEMATIC_NAME>
[(2R,5R)-5-[5-methyl-2,4-bis(oxidanylidene)pyrimidin-1-yl]-3-oxidanyl-oxolan-2-yl]methyl dihydrogen phosphite

> <PUBCHEM_IUPAC_TRADITIONAL_NAME>
[(2R,5R)-5-(2,4-diketo-5-methyl-pyrimidin-1-yl)-3-hydroxy-tetrahydrofuran-2-yl]methyl dihydrogen phosphite

> <PUBCHEM_IUPAC_INCHI>
InChI=1S/C10H15N2O7P/c1-5-3-12(10(15)11-9(5)14)8-2-6(13)7(19-8)4-18-20(16)17/h3,6-8,13,16-17H,2,4H2,1H3,(H,11,14,15)/t6?,7-,8-/m1/s1

> <PUBCHEM_IUPAC_INCHIKEY>
ZIQQZSKEPQVHNE-SPDVFEMOSA-N

> <PUBCHEM_XLOGP3>
-2.3

> <PUBCHEM_EXACT_MASS>
306.06168782

> <PUBCHEM_MOLECULAR_FORMULA>
C10H15N2O7P

> <PUBCHEM_MOLECULAR_WEIGHT>
306.21

> <PUBCHEM_OPENEYE_CAN_SMILES>
CC1=CN(C(=O)NC1=O)C2CC(C(O2)COP(O)O)O

> <PUBCHEM_OPENEYE_ISO_SMILES>
CC1=CN(C(=O)NC1=O)[C@H]2CC([C@H](O2)COP(O)O)O

> <PUBCHEM_CACTVS_TPSA>
129

> <PUBCHEM_MONOISOTOPIC_WEIGHT>
306.06168782

> <PUBCHEM_TOTAL_CHARGE>
0

> <PUBCHEM_HEAVY_ATOM_COUNT>
20

> <PUBCHEM_ATOM_DEF_STEREO_COUNT>
2

> <PUBCHEM_ATOM_UDEF_STEREO_COUNT>
1

> <PUBCHEM_BOND_DEF_STEREO_COUNT>
0

> <PUBCHEM_BOND_UDEF_STEREO_COUNT>
0

> <PUBCHEM_ISOTOPIC_ATOM_COUNT>
0

> <PUBCHEM_COMPONENT_COUNT>
1

> <PUBCHEM_CACTVS_TAUTO_COUNT>
-1

> <PUBCHEM_COORDINATE_TYPE>
1
5
255

> <PUBCHEM_BONDANNOTATIONS>
10  17  8
10  19  8
14  15  6
16  18  8
18  19  8
11  3  3
12  9  6
9  16  8
9  17  8

$$$$
