 
  -OEChem-10192104322D

 43 44  0     1  0  0  0  0  0999 V2000
    8.4520    0.6618    0.0000 O   0  5  0  0  0  0  0  0  0  0  0  0
    7.4340    2.0630    0.0000 O   0  0  0  0  0  0  0  0  0  0  0  0
    5.1906   -0.0193    0.0000 N   0  0  0  0  0  0  0  0  0  0  0  0
    5.7784   -0.8283    0.0000 N   0  0  0  0  0  0  0  0  0  0  0  0
    7.5385    1.0685    0.0000 N   0  3  0  0  0  0  0  0  0  0  0  0
    5.0037   -2.4839    0.0000 N   0  0  0  0  0  0  0  0  0  0  0  0
    4.1906   -0.0193    0.0000 C   0  0  3  0  0  0  0  0  0  0  0  0
    3.7568   -0.9203    0.0000 C   0  0  3  0  0  0  0  0  0  0  0  0
    3.7568    0.8817    0.0000 C   0  0  0  0  0  0  0  0  0  0  0  0
    2.7818   -1.1428    0.0000 C   0  0  0  0  0  0  0  0  0  0  0  0
    2.7818    1.1042    0.0000 C   0  0  0  0  0  0  0  0  0  0  0  0
    2.0000   -0.5193    0.0000 C   0  0  0  0  0  0  0  0  0  0  0  0
    2.0000    0.4807    0.0000 C   0  0  0  0  0  0  0  0  0  0  0  0
    5.7784    0.7897    0.0000 C   0  0  0  0  0  0  0  0  0  0  0  0
    6.7295    0.4807    0.0000 C   0  0  0  0  0  0  0  0  0  0  0  0
    6.7295   -0.5193    0.0000 C   0  0  0  0  0  0  0  0  0  0  0  0
    4.3802   -1.7021    0.0000 C   0  0  0  0  0  0  0  0  0  0  0  0
    5.4694    1.7408    0.0000 C   0  0  0  0  0  0  0  0  0  0  0  0
    7.5385   -1.1071    0.0000 C   0  0  0  0  0  0  0  0  0  0  0  0
    6.1385    2.4839    0.0000 C   0  0  0  0  0  0  0  0  0  0  0  0
    7.4340   -2.1016    0.0000 C   0  0  0  0  0  0  0  0  0  0  0  0
    4.5205   -0.5443    0.0000 H   0  0  0  0  0  0  0  0  0  0  0  0
    3.5520   -1.5055    0.0000 H   0  0  0  0  0  0  0  0  0  0  0  0
    4.3612    1.0196    0.0000 H   0  0  0  0  0  0  0  0  0  0  0  0
    3.7568    1.5017    0.0000 H   0  0  0  0  0  0  0  0  0  0  0  0
    2.2971   -1.5294    0.0000 H   0  0  0  0  0  0  0  0  0  0  0  0
    3.0508   -1.7014    0.0000 H   0  0  0  0  0  0  0  0  0  0  0  0
    3.0508    1.6628    0.0000 H   0  0  0  0  0  0  0  0  0  0  0  0
    2.2971    1.4908    0.0000 H   0  0  0  0  0  0  0  0  0  0  0  0
    1.3955   -0.3813    0.0000 H   0  0  0  0  0  0  0  0  0  0  0  0
    1.7310   -1.0779    0.0000 H   0  0  0  0  0  0  0  0  0  0  0  0
    1.7310    1.0393    0.0000 H   0  0  0  0  0  0  0  0  0  0  0  0
    1.3955    0.3427    0.0000 H   0  0  0  0  0  0  0  0  0  0  0  0
    5.0877    2.2294    0.0000 H   0  0  0  0  0  0  0  0  0  0  0  0
    4.9220    1.4497    0.0000 H   0  0  0  0  0  0  0  0  0  0  0  0
    8.1345   -1.2780    0.0000 H   0  0  0  0  0  0  0  0  0  0  0  0
    7.8103   -0.5498    0.0000 H   0  0  0  0  0  0  0  0  0  0  0  0
    6.5993    2.0691    0.0000 H   0  0  0  0  0  0  0  0  0  0  0  0
    6.5534    2.9447    0.0000 H   0  0  0  0  0  0  0  0  0  0  0  0
    5.6778    2.8988    0.0000 H   0  0  0  0  0  0  0  0  0  0  0  0
    6.8174   -2.0368    0.0000 H   0  0  0  0  0  0  0  0  0  0  0  0
    7.3692   -2.7182    0.0000 H   0  0  0  0  0  0  0  0  0  0  0  0
    8.0506   -2.1664    0.0000 H   0  0  0  0  0  0  0  0  0  0  0  0
  1  5  1  0  0  0  0
  2  5  2  0  0  0  0
  3  4  1  0  0  0  0
  3  7  1  0  0  0  0
  3 14  1  0  0  0  0
  4 16  2  0  0  0  0
  5 15  1  0  0  0  0
  6 17  3  0  0  0  0
  7  8  1  0  0  0  0
  7  9  1  0  0  0  0
  7 22  1  0  0  0  0
  8 10  1  0  0  0  0
  8 17  1  0  0  0  0
  8 23  1  0  0  0  0
  9 11  1  0  0  0  0
  9 24  1  0  0  0  0
  9 25  1  0  0  0  0
 10 12  1  0  0  0  0
 10 26  1  0  0  0  0
 10 27  1  0  0  0  0
 11 13  1  0  0  0  0
 11 28  1  0  0  0  0
 11 29  1  0  0  0  0
 12 13  1  0  0  0  0
 12 30  1  0  0  0  0
 12 31  1  0  0  0  0
 13 32  1  0  0  0  0
 13 33  1  0  0  0  0
 14 15  2  0  0  0  0
 14 18  1  0  0  0  0
 15 16  1  0  0  0  0
 16 19  1  0  0  0  0
 18 20  1  0  0  0  0
 18 34  1  0  0  0  0
 18 35  1  0  0  0  0
 19 21  1  0  0  0  0
 19 36  1  0  0  0  0
 19 37  1  0  0  0  0
 20 38  1  0  0  0  0
 20 39  1  0  0  0  0
 20 40  1  0  0  0  0
 21 41  1  0  0  0  0
 21 42  1  0  0  0  0
 21 43  1  0  0  0  0
M  CHG  2   1  -1   5   1
M  END
> <PUBCHEM_COMPOUND_CID>
82693368

> <PUBCHEM_COMPOUND_CANONICALIZED>
1

> <PUBCHEM_CACTVS_COMPLEXITY>
414

> <PUBCHEM_CACTVS_HBOND_ACCEPTOR>
4

> <PUBCHEM_CACTVS_HBOND_DONOR>
0

> <PUBCHEM_CACTVS_ROTATABLE_BOND>
3

> <PUBCHEM_CACTVS_SUBSKEYS>
AAADceBzsAAAAAAAAAAAAAAAAAAAAWAAAAAAAAAABgAAAAABgAAAHAAMAAAADSjBFgQCwJIYQACzBQRgRwCQBAAhkAAwWCA4VBoA4AJA0NCUhAhgiIDISAsQgMAOAAAAAAAAAAAAAAAAAAAAAAAAAAAAAA==

> <PUBCHEM_IUPAC_OPENEYE_NAME>
2-(3,5-diethyl-4-nitro-pyrazol-1-yl)cycloheptanecarbonitrile

> <PUBCHEM_IUPAC_CAS_NAME>
2-(3,5-diethyl-4-nitro-1-pyrazolyl)-1-cycloheptanecarbonitrile

> <PUBCHEM_IUPAC_NAME_MARKUP>
2-(3,5-diethyl-4-nitropyrazol-1-yl)cycloheptane-1-carbonitrile

> <PUBCHEM_IUPAC_NAME>
2-(3,5-diethyl-4-nitropyrazol-1-yl)cycloheptane-1-carbonitrile

> <PUBCHEM_IUPAC_SYSTEMATIC_NAME>
2-(3,5-diethyl-4-nitro-pyrazol-1-yl)cycloheptane-1-carbonitrile

> <PUBCHEM_IUPAC_TRADITIONAL_NAME>
2-(3,5-diethyl-4-nitro-pyrazol-1-yl)cycloheptanecarbonitrile

> <PUBCHEM_IUPAC_INCHI>
InChI=1S/C15H22N4O2/c1-3-12-15(19(20)21)13(4-2)18(17-12)14-9-7-5-6-8-11(14)10-16/h11,14H,3-9H2,1-2H3

> <PUBCHEM_IUPAC_INCHIKEY>
BNAIJHOFMNAXKS-UHFFFAOYSA-N

> <PUBCHEM_XLOGP3_AA>
3.3

> <PUBCHEM_EXACT_MASS>
290.17427596

> <PUBCHEM_MOLECULAR_FORMULA>
C15H22N4O2

> <PUBCHEM_MOLECULAR_WEIGHT>
290.36

> <PUBCHEM_OPENEYE_CAN_SMILES>
CCC1=C(C(=NN1C2CCCCCC2C#N)CC)[N+](=O)[O-]

> <PUBCHEM_OPENEYE_ISO_SMILES>
CCC1=C(C(=NN1C2CCCCCC2C#N)CC)[N+](=O)[O-]

> <PUBCHEM_CACTVS_TPSA>
87.4

> <PUBCHEM_MONOISOTOPIC_WEIGHT>
290.17427596

> <PUBCHEM_TOTAL_CHARGE>
0

> <PUBCHEM_HEAVY_ATOM_COUNT>
21

> <PUBCHEM_ATOM_DEF_STEREO_COUNT>
0

> <PUBCHEM_ATOM_UDEF_STEREO_COUNT>
2

> <PUBCHEM_BOND_DEF_STEREO_COUNT>
0

> <PUBCHEM_BOND_UDEF_STEREO_COUNT>
0

> <PUBCHEM_ISOTOPIC_ATOM_COUNT>
0

> <PUBCHEM_COMPONENT_COUNT>
1

> <PUBCHEM_CACTVS_TAUTO_COUNT>
-1

> <PUBCHEM_COORDINATE_TYPE>
1
5
255

> <PUBCHEM_BONDANNOTATIONS>
14  15  8
15  16  8
3  14  8
3  4  8
7  3  3
4  16  8
8  17  3

$$$$
