 
  -OEChem-10192103372D

 50 54  0     1  0  0  0  0  0999 V2000
    4.3660    0.8017    0.0000 P   0  0  3  0  0  0  0  0  0  0  0  0
    7.0443   -0.5031    0.0000 O   0  0  0  0  0  0  0  0  0  0  0  0
    5.2320    1.3017    0.0000 O   0  0  0  0  0  0  0  0  0  0  0  0
    4.3660   -0.1983    0.0000 O   0  0  0  0  0  0  0  0  0  0  0  0
    3.8660    1.6677    0.0000 O   0  0  0  0  0  0  0  0  0  0  0  0
   11.8569   -0.5496    0.0000 O   0  0  0  0  0  0  0  0  0  0  0  0
    3.3660    0.8017    0.0000 N   0  0  0  0  0  0  0  0  0  0  0  0
    8.6279    0.3017    0.0000 N   0  0  0  0  0  0  0  0  0  0  0  0
    6.7369    2.0580    0.0000 N   0  0  0  0  0  0  0  0  0  0  0  0
   10.1577    0.8017    0.0000 N   0  0  0  0  0  0  0  0  0  0  0  0
    7.4073    2.8000    0.0000 N   0  3  0  0  0  0  0  0  0  0  0  0
    9.0053   -1.4816    0.0000 N   0  0  0  0  0  0  0  0  0  0  0  0
   10.7001   -1.8387    0.0000 N   0  0  0  0  0  0  0  0  0  0  0  0
    8.0778    3.5420    0.0000 N   0  5  0  0  0  0  0  0  0  0  0  0
    9.5434   -3.1279    0.0000 N   0  0  0  0  0  0  0  0  0  0  0  0
    6.0981    0.8017    0.0000 C   0  0  1  0  0  0  0  0  0  0  0  0
    7.0443    1.1064    0.0000 C   0  0  2  0  0  0  0  0  0  0  0  0
    6.0981   -0.1983    0.0000 C   0  0  1  0  0  0  0  0  0  0  0  0
    7.6279    0.3017    0.0000 C   0  0  1  0  0  0  0  0  0  0  0  0
    2.8660   -0.0643    0.0000 C   0  0  0  0  0  0  0  0  0  0  0  0
    2.0000   -0.5643    0.0000 C   0  0  0  0  0  0  0  0  0  0  0  0
    2.8660   -1.0643    0.0000 C   0  0  0  0  0  0  0  0  0  0  0  0
    5.2320   -0.6983    0.0000 C   0  0  0  0  0  0  0  0  0  0  0  0
    7.8543    1.6928    0.0000 C   0  0  0  0  0  0  0  0  0  0  0  0
    9.2115   -0.5031    0.0000 C   0  0  0  0  0  0  0  0  0  0  0  0
    9.2115    1.1064    0.0000 C   0  0  0  0  0  0  0  0  0  0  0  0
   10.1620   -0.1924    0.0000 C   0  0  0  0  0  0  0  0  0  0  0  0
   10.9063   -0.8602    0.0000 C   0  0  0  0  0  0  0  0  0  0  0  0
    9.7496   -2.1494    0.0000 C   0  0  0  0  0  0  0  0  0  0  0  0
   12.6012   -1.2174    0.0000 C   0  0  0  0  0  0  0  0  0  0  0  0
    6.1880    1.6469    0.0000 H   0  0  0  0  0  0  0  0  0  0  0  0
    6.1880   -1.0436    0.0000 H   0  0  0  0  0  0  0  0  0  0  0  0
    7.9096   -0.2506    0.0000 H   0  0  0  0  0  0  0  0  0  0  0  0
    3.4649   -0.2248    0.0000 H   0  0  0  0  0  0  0  0  0  0  0  0
    1.6015   -0.0894    0.0000 H   0  0  0  0  0  0  0  0  0  0  0  0
    1.6015   -1.0393    0.0000 H   0  0  0  0  0  0  0  0  0  0  0  0
    2.6540   -1.6470    0.0000 H   0  0  0  0  0  0  0  0  0  0  0  0
    3.4766   -1.1720    0.0000 H   0  0  0  0  0  0  0  0  0  0  0  0
    4.8335   -1.1733    0.0000 H   0  0  0  0  0  0  0  0  0  0  0  0
    5.6306   -1.1733    0.0000 H   0  0  0  0  0  0  0  0  0  0  0  0
    3.0560    1.3386    0.0000 H   0  0  0  0  0  0  0  0  0  0  0  0
    8.2179    1.1906    0.0000 H   0  0  0  0  0  0  0  0  0  0  0  0
    8.3566    2.0564    0.0000 H   0  0  0  0  0  0  0  0  0  0  0  0
    7.4908    2.1950    0.0000 H   0  0  0  0  0  0  0  0  0  0  0  0
    9.0189    1.6957    0.0000 H   0  0  0  0  0  0  0  0  0  0  0  0
   10.0048   -3.5420    0.0000 H   0  0  0  0  0  0  0  0  0  0  0  0
    8.9541   -3.3205    0.0000 H   0  0  0  0  0  0  0  0  0  0  0  0
   12.1871   -1.6789    0.0000 H   0  0  0  0  0  0  0  0  0  0  0  0
   13.0626   -1.6315    0.0000 H   0  0  0  0  0  0  0  0  0  0  0  0
   13.0152   -0.7559    0.0000 H   0  0  0  0  0  0  0  0  0  0  0  0
  1  3  1  0  0  0  0
  1  4  1  0  0  0  0
  1  5  2  0  0  0  0
  1  7  1  0  0  0  0
  2 18  1  0  0  0  0
  2 19  1  0  0  0  0
  3 16  1  0  0  0  0
  4 23  1  0  0  0  0
  6 28  1  0  0  0  0
  6 30  1  0  0  0  0
  7 20  1  0  0  0  0
  7 41  1  0  0  0  0
 19  8  1  6  0  0  0
  8 25  1  0  0  0  0
  8 26  1  0  0  0  0
  9 11  2  0  0  0  0
 17  9  1  1  0  0  0
 10 26  2  0  0  0  0
 10 27  1  0  0  0  0
 11 14  2  0  0  0  0
 12 25  1  0  0  0  0
 12 29  2  0  0  0  0
 13 28  2  0  0  0  0
 13 29  1  0  0  0  0
 15 29  1  0  0  0  0
 15 46  1  0  0  0  0
 15 47  1  0  0  0  0
 16 17  1  0  0  0  0
 16 18  1  0  0  0  0
 16 31  1  6  0  0  0
 17 19  1  0  0  0  0
 17 24  1  0  0  0  0
 18 23  1  0  0  0  0
 18 32  1  1  0  0  0
 19 33  1  0  0  0  0
 20 21  1  0  0  0  0
 20 22  1  0  0  0  0
 20 34  1  0  0  0  0
 21 22  1  0  0  0  0
 21 35  1  0  0  0  0
 21 36  1  0  0  0  0
 22 37  1  0  0  0  0
 22 38  1  0  0  0  0
 23 39  1  0  0  0  0
 23 40  1  0  0  0  0
 24 42  1  0  0  0  0
 24 43  1  0  0  0  0
 24 44  1  0  0  0  0
 25 27  2  0  0  0  0
 26 45  1  0  0  0  0
 27 28  1  0  0  0  0
 30 48  1  0  0  0  0
 30 49  1  0  0  0  0
 30 50  1  0  0  0  0
M  CHG  2  11   1  14  -1
M  END
> <PUBCHEM_COMPOUND_CID>
70914602

> <PUBCHEM_COMPOUND_CANONICALIZED>
1

> <PUBCHEM_CACTVS_COMPLEXITY>
782

> <PUBCHEM_CACTVS_HBOND_ACCEPTOR>
12

> <PUBCHEM_CACTVS_HBOND_DONOR>
2

> <PUBCHEM_CACTVS_ROTATABLE_BOND>
5

> <PUBCHEM_CACTVS_SUBSKEYS>
AAADceBz+AIAAAAAAAAAAAAAGAAAAWJAAAAsSAAAAAAAAFgB+AAAHgAYgCAADLzhlwYH9L9MFRCiQQZhZISAiC0RcKABUKAtXBCHTAJE6EgfBCgPEArSICCwMAIMAAAAAAAAAAAAAAAAAAAAAAAAAAAAAA==

> <PUBCHEM_IUPAC_OPENEYE_NAME>
9-[(4aR,6R,7R,7aS)-7-azido-2-(cyclopropylamino)-7-methyl-2-oxo-4,4a,6,7a-tetrahydrofuro[3,2-d][1,3,2]dioxaphosphinin-6-yl]-6-methoxy-purin-2-amine

> <PUBCHEM_IUPAC_CAS_NAME>
9-[(4aR,6R,7R,7aS)-7-azido-2-(cyclopropylamino)-7-methyl-2-oxo-4,4a,6,7a-tetrahydrofuro[3,2-d][1,3,2]dioxaphosphorin-6-yl]-6-methoxy-2-purinamine

> <PUBCHEM_IUPAC_NAME_MARKUP>
9-[(4<I>a</I><I>R</I>,6<I>R</I>,7<I>R</I>,7<I>a</I><I>S</I>)-7-azido-2-(cyclopropylamino)-7-methyl-2-oxo-4,4<I>a</I>,6,7<I>a</I>-tetrahydrofuro[3,2-d][1,3,2]dioxaphosphinin-6-yl]-6-methoxypurin-2-amine

> <PUBCHEM_IUPAC_NAME>
9-[(4aR,6R,7R,7aS)-7-azido-2-(cyclopropylamino)-7-methyl-2-oxo-4,4a,6,7a-tetrahydrofuro[3,2-d][1,3,2]dioxaphosphinin-6-yl]-6-methoxypurin-2-amine

> <PUBCHEM_IUPAC_SYSTEMATIC_NAME>
9-[(4aR,6R,7R,7aS)-7-azido-2-(cyclopropylamino)-7-methyl-2-oxidanylidene-4,4a,6,7a-tetrahydrofuro[3,2-d][1,3,2]dioxaphosphinin-6-yl]-6-methoxy-purin-2-amine

> <PUBCHEM_IUPAC_TRADITIONAL_NAME>
[(4aR,6R,7R,7aS)-6-(2-amino-6-methoxy-purin-9-yl)-7-azido-2-keto-7-methyl-4,4a,6,7a-tetrahydrofuro[3,2-d][1,3,2]dioxaphosphorin-2-yl]-cyclopropyl-amine

> <PUBCHEM_IUPAC_INCHI>
InChI=1S/C15H20N9O5P/c1-15(22-23-17)10-8(5-27-30(25,29-10)21-7-3-4-7)28-13(15)24-6-18-9-11(24)19-14(16)20-12(9)26-2/h6-8,10,13H,3-5H2,1-2H3,(H,21,25)(H2,16,19,20)/t8-,10-,13-,15-,30?/m1/s1

> <PUBCHEM_IUPAC_INCHIKEY>
UIYRFHQRGRZCQD-AIXFLPIPSA-N

> <PUBCHEM_XLOGP3_AA>
0.3

> <PUBCHEM_EXACT_MASS>
437.13250177

> <PUBCHEM_MOLECULAR_FORMULA>
C15H20N9O5P

> <PUBCHEM_MOLECULAR_WEIGHT>
437.35

> <PUBCHEM_OPENEYE_CAN_SMILES>
CC1(C2C(COP(=O)(O2)NC3CC3)OC1N4C=NC5=C4N=C(N=C5OC)N)N=[N+]=[N-]

> <PUBCHEM_OPENEYE_ISO_SMILES>
C[C@]1([C@H]2[C@@H](COP(=O)(O2)NC3CC3)O[C@H]1N4C=NC5=C4N=C(N=C5OC)N)N=[N+]=[N-]

> <PUBCHEM_CACTVS_TPSA>
150

> <PUBCHEM_MONOISOTOPIC_WEIGHT>
437.13250177

> <PUBCHEM_TOTAL_CHARGE>
0

> <PUBCHEM_HEAVY_ATOM_COUNT>
30

> <PUBCHEM_ATOM_DEF_STEREO_COUNT>
4

> <PUBCHEM_ATOM_UDEF_STEREO_COUNT>
1

> <PUBCHEM_BOND_DEF_STEREO_COUNT>
0

> <PUBCHEM_BOND_UDEF_STEREO_COUNT>
0

> <PUBCHEM_ISOTOPIC_ATOM_COUNT>
0

> <PUBCHEM_COMPONENT_COUNT>
1

> <PUBCHEM_CACTVS_TAUTO_COUNT>
-1

> <PUBCHEM_COORDINATE_TYPE>
1
5
255

> <PUBCHEM_BONDANNOTATIONS>
1  7  3
10  26  8
10  27  8
12  25  8
12  29  8
13  28  8
13  29  8
16  31  6
18  32  5
25  27  8
27  28  8
19  8  6
8  25  8
8  26  8
17  9  5

$$$$
