 
  -OEChem-10192104252D

 42 42  0     0  0  0  0  0  0999 V2000
    8.9282    5.0950    0.0000 O   0  0  0  0  0  0  0  0  0  0  0  0
    2.8660   -5.4050    0.0000 O   0  0  0  0  0  0  0  0  0  0  0  0
    7.1962    5.0950    0.0000 O   0  0  0  0  0  0  0  0  0  0  0  0
    2.0000   -3.9050    0.0000 O   0  0  0  0  0  0  0  0  0  0  0  0
    6.3301    1.5950    0.0000 C   0  0  0  0  0  0  0  0  0  0  0  0
    4.5981   -1.4050    0.0000 C   0  0  0  0  0  0  0  0  0  0  0  0
    7.1962    2.0950    0.0000 C   0  0  0  0  0  0  0  0  0  0  0  0
    4.5981   -2.4050    0.0000 C   0  0  0  0  0  0  0  0  0  0  0  0
    6.3301    0.5950    0.0000 C   0  0  0  0  0  0  0  0  0  0  0  0
    5.4641   -0.9050    0.0000 C   0  0  0  0  0  0  0  0  0  0  0  0
    7.1962    3.0950    0.0000 C   0  0  0  0  0  0  0  0  0  0  0  0
    3.7320   -2.9050    0.0000 C   0  0  0  0  0  0  0  0  0  0  0  0
    5.4641    0.0950    0.0000 C   0  0  0  0  0  0  0  0  0  0  0  0
    7.1962    0.0950    0.0000 C   0  0  0  0  0  0  0  0  0  0  0  0
    6.3301   -1.4050    0.0000 C   0  0  0  0  0  0  0  0  0  0  0  0
    8.0622    3.5950    0.0000 C   0  0  0  0  0  0  0  0  0  0  0  0
    3.7320   -3.9050    0.0000 C   0  0  0  0  0  0  0  0  0  0  0  0
    7.1962   -0.9050    0.0000 C   0  0  0  0  0  0  0  0  0  0  0  0
    8.0622    4.5950    0.0000 C   0  0  0  0  0  0  0  0  0  0  0  0
    2.8660   -4.4050    0.0000 C   0  0  0  0  0  0  0  0  0  0  0  0
    6.1181    2.1776    0.0000 H   0  0  0  0  0  0  0  0  0  0  0  0
    5.7196    1.4873    0.0000 H   0  0  0  0  0  0  0  0  0  0  0  0
    4.3860   -0.8224    0.0000 H   0  0  0  0  0  0  0  0  0  0  0  0
    3.9875   -1.5127    0.0000 H   0  0  0  0  0  0  0  0  0  0  0  0
    7.4082    1.5124    0.0000 H   0  0  0  0  0  0  0  0  0  0  0  0
    7.8067    2.2027    0.0000 H   0  0  0  0  0  0  0  0  0  0  0  0
    4.8101   -2.9876    0.0000 H   0  0  0  0  0  0  0  0  0  0  0  0
    5.2087   -2.2973    0.0000 H   0  0  0  0  0  0  0  0  0  0  0  0
    6.9841    3.6776    0.0000 H   0  0  0  0  0  0  0  0  0  0  0  0
    6.5856    2.9873    0.0000 H   0  0  0  0  0  0  0  0  0  0  0  0
    3.5200   -2.3224    0.0000 H   0  0  0  0  0  0  0  0  0  0  0  0
    3.1215   -3.0127    0.0000 H   0  0  0  0  0  0  0  0  0  0  0  0
    4.9272    0.4050    0.0000 H   0  0  0  0  0  0  0  0  0  0  0  0
    7.7331    0.4050    0.0000 H   0  0  0  0  0  0  0  0  0  0  0  0
    6.3301   -2.0250    0.0000 H   0  0  0  0  0  0  0  0  0  0  0  0
    8.2742    3.0124    0.0000 H   0  0  0  0  0  0  0  0  0  0  0  0
    8.6728    3.7027    0.0000 H   0  0  0  0  0  0  0  0  0  0  0  0
    3.9441   -4.4876    0.0000 H   0  0  0  0  0  0  0  0  0  0  0  0
    4.3426   -3.7973    0.0000 H   0  0  0  0  0  0  0  0  0  0  0  0
    7.7331   -1.2150    0.0000 H   0  0  0  0  0  0  0  0  0  0  0  0
    8.9282    5.7150    0.0000 H   0  0  0  0  0  0  0  0  0  0  0  0
    2.3291   -5.7150    0.0000 H   0  0  0  0  0  0  0  0  0  0  0  0
  1 19  1  0  0  0  0
  1 41  1  0  0  0  0
  2 20  1  0  0  0  0
  2 42  1  0  0  0  0
  3 19  2  0  0  0  0
  4 20  2  0  0  0  0
  5  7  1  0  0  0  0
  5  9  1  0  0  0  0
  5 21  1  0  0  0  0
  5 22  1  0  0  0  0
  6  8  1  0  0  0  0
  6 10  1  0  0  0  0
  6 23  1  0  0  0  0
  6 24  1  0  0  0  0
  7 11  1  0  0  0  0
  7 25  1  0  0  0  0
  7 26  1  0  0  0  0
  8 12  1  0  0  0  0
  8 27  1  0  0  0  0
  8 28  1  0  0  0  0
  9 13  2  0  0  0  0
  9 14  1  0  0  0  0
 10 13  1  0  0  0  0
 10 15  2  0  0  0  0
 11 16  1  0  0  0  0
 11 29  1  0  0  0  0
 11 30  1  0  0  0  0
 12 17  1  0  0  0  0
 12 31  1  0  0  0  0
 12 32  1  0  0  0  0
 13 33  1  0  0  0  0
 14 18  2  0  0  0  0
 14 34  1  0  0  0  0
 15 18  1  0  0  0  0
 15 35  1  0  0  0  0
 16 19  1  0  0  0  0
 16 36  1  0  0  0  0
 16 37  1  0  0  0  0
 17 20  1  0  0  0  0
 17 38  1  0  0  0  0
 17 39  1  0  0  0  0
 18 40  1  0  0  0  0
M  END
> <PUBCHEM_COMPOUND_CID>
91461721

> <PUBCHEM_COMPOUND_CANONICALIZED>
1

> <PUBCHEM_CACTVS_COMPLEXITY>
273

> <PUBCHEM_CACTVS_HBOND_ACCEPTOR>
4

> <PUBCHEM_CACTVS_HBOND_DONOR>
2

> <PUBCHEM_CACTVS_ROTATABLE_BOND>
10

> <PUBCHEM_CACTVS_SUBSKEYS>
AAADceB4OAAAAAAAAAAAAAAAAAAAAAAAAAAwAAAAAAAAAAABAAAAGgAACAAADACAmAAwCIAAAgCIAiDSCAACAAAgAAAIiAEAAIgIIDKAERCAYAAkgAAIiAeIyOCOAAACAAAAAAAAAAQAAAAAAAAAAAAAAA==

> <PUBCHEM_IUPAC_OPENEYE_NAME>
5-[3-(4-carboxybutyl)phenyl]pentanoic acid

> <PUBCHEM_IUPAC_CAS_NAME>
5-[3-(4-carboxybutyl)phenyl]pentanoic acid

> <PUBCHEM_IUPAC_NAME_MARKUP>
5-[3-(4-carboxybutyl)phenyl]pentanoic acid

> <PUBCHEM_IUPAC_NAME>
5-[3-(4-carboxybutyl)phenyl]pentanoic acid

> <PUBCHEM_IUPAC_SYSTEMATIC_NAME>
5-[3-(5-oxidanyl-5-oxidanylidene-pentyl)phenyl]pentanoic acid

> <PUBCHEM_IUPAC_TRADITIONAL_NAME>
5-[3-(4-carboxybutyl)phenyl]valeric acid

> <PUBCHEM_IUPAC_INCHI>
InChI=1S/C16H22O4/c17-15(18)10-3-1-6-13-8-5-9-14(12-13)7-2-4-11-16(19)20/h5,8-9,12H,1-4,6-7,10-11H2,(H,17,18)(H,19,20)

> <PUBCHEM_IUPAC_INCHIKEY>
KZRSCPOWICBCQX-UHFFFAOYSA-N

> <PUBCHEM_XLOGP3>
3.4

> <PUBCHEM_EXACT_MASS>
278.15180918

> <PUBCHEM_MOLECULAR_FORMULA>
C16H22O4

> <PUBCHEM_MOLECULAR_WEIGHT>
278.34

> <PUBCHEM_OPENEYE_CAN_SMILES>
C1=CC(=CC(=C1)CCCCC(=O)O)CCCCC(=O)O

> <PUBCHEM_OPENEYE_ISO_SMILES>
C1=CC(=CC(=C1)CCCCC(=O)O)CCCCC(=O)O

> <PUBCHEM_CACTVS_TPSA>
74.6

> <PUBCHEM_MONOISOTOPIC_WEIGHT>
278.15180918

> <PUBCHEM_TOTAL_CHARGE>
0

> <PUBCHEM_HEAVY_ATOM_COUNT>
20

> <PUBCHEM_ATOM_DEF_STEREO_COUNT>
0

> <PUBCHEM_ATOM_UDEF_STEREO_COUNT>
0

> <PUBCHEM_BOND_DEF_STEREO_COUNT>
0

> <PUBCHEM_BOND_UDEF_STEREO_COUNT>
0

> <PUBCHEM_ISOTOPIC_ATOM_COUNT>
0

> <PUBCHEM_COMPONENT_COUNT>
1

> <PUBCHEM_CACTVS_TAUTO_COUNT>
-1

> <PUBCHEM_COORDINATE_TYPE>
1
5
255

> <PUBCHEM_BONDANNOTATIONS>
10  13  8
10  15  8
14  18  8
15  18  8
9  13  8
9  14  8

$$$$
