 
  -OEChem-10192103532D

 74 78  0     1  0  0  0  0  0999 V2000
    4.0443   -3.1442    0.0000 O   0  0  0  0  0  0  0  0  0  0  0  0
    4.9580   -3.6650    0.0000 O   0  0  0  0  0  0  0  0  0  0  0  0
    2.6200   -3.5619    0.0000 O   0  0  0  0  0  0  0  0  0  0  0  0
    3.1525    0.4613    0.0000 O   0  0  0  0  0  0  0  0  0  0  0  0
    9.2482    2.8162    0.0000 O   0  0  0  0  0  0  0  0  0  0  0  0
   10.5373    3.9730    0.0000 O   0  0  0  0  0  0  0  0  0  0  0  0
    6.7021    0.4042    0.0000 C   0  0  1  0  0  0  0  0  0  0  0  0
    6.7021   -0.5958    0.0000 C   0  0  2  0  0  0  0  0  0  0  0  0
    5.8361   -1.0958    0.0000 C   0  0  1  0  0  0  0  0  0  0  0  0
    4.9701   -0.5958    0.0000 C   0  0  1  0  0  0  0  0  0  0  0  0
    7.6483    0.7090    0.0000 C   0  0  2  0  0  0  0  0  0  0  0  0
    4.0601   -1.1026    0.0000 C   0  0  1  0  0  0  0  0  0  0  0  0
    5.8361    0.9042    0.0000 C   0  0  0  0  0  0  0  0  0  0  0  0
    7.6483   -0.9005    0.0000 C   0  0  0  0  0  0  0  0  0  0  0  0
    4.9701    0.4042    0.0000 C   0  0  0  0  0  0  0  0  0  0  0  0
    4.0520   -2.1442    0.0000 C   0  0  1  0  0  0  0  0  0  0  0  0
    5.8522   -2.1373    0.0000 C   0  0  0  0  0  0  0  0  0  0  0  0
    8.2320   -0.0958    0.0000 C   0  0  0  0  0  0  0  0  0  0  0  0
    4.9541   -2.6650    0.0000 C   0  0  2  0  0  0  0  0  0  0  0  0
    7.9590    1.6595    0.0000 C   0  0  1  0  0  0  0  0  0  0  0  0
    6.7021    1.4042    0.0000 C   0  0  0  0  0  0  0  0  0  0  0  0
    4.0678   -0.1026    0.0000 C   0  0  0  0  0  0  0  0  0  0  0  0
    3.1166   -2.6940    0.0000 C   0  0  2  0  0  0  0  0  0  0  0  0
    3.1332   -0.5385    0.0000 C   0  0  0  0  0  0  0  0  0  0  0  0
    8.9375    1.8657    0.0000 C   0  0  1  0  0  0  0  0  0  0  0  0
    7.2912    2.4038    0.0000 C   0  0  0  0  0  0  0  0  0  0  0  0
    2.1770   -2.1514    0.0000 C   0  0  0  0  0  0  0  0  0  0  0  0
    2.1854   -1.0665    0.0000 C   0  0  0  0  0  0  0  0  0  0  0  0
    9.6054    1.1214    0.0000 C   0  0  0  0  0  0  0  0  0  0  0  0
   10.5839    1.3276    0.0000 C   0  0  0  0  0  0  0  0  0  0  0  0
   10.2267    3.0224    0.0000 C   0  0  0  0  0  0  0  0  0  0  0  0
   10.8945    2.2781    0.0000 C   0  0  0  0  0  0  0  0  0  0  0  0
   11.2517    0.5833    0.0000 C   0  0  0  0  0  0  0  0  0  0  0  0
   11.8730    2.4844    0.0000 C   0  0  0  0  0  0  0  0  0  0  0  0
    6.7921   -1.4410    0.0000 H   0  0  0  0  0  0  0  0  0  0  0  0
    6.5755   -1.5151    0.0000 H   0  0  0  0  0  0  0  0  0  0  0  0
    5.7062   -0.1708    0.0000 H   0  0  0  0  0  0  0  0  0  0  0  0
    8.4880    0.8408    0.0000 H   0  0  0  0  0  0  0  0  0  0  0  0
    6.2346    1.3792    0.0000 H   0  0  0  0  0  0  0  0  0  0  0  0
    5.4376    1.3792    0.0000 H   0  0  0  0  0  0  0  0  0  0  0  0
    7.3973   -1.4674    0.0000 H   0  0  0  0  0  0  0  0  0  0  0  0
    8.1857   -1.2097    0.0000 H   0  0  0  0  0  0  0  0  0  0  0  0
    4.7580    0.9868    0.0000 H   0  0  0  0  0  0  0  0  0  0  0  0
    4.3595    0.2966    0.0000 H   0  0  0  0  0  0  0  0  0  0  0  0
    6.0702   -2.7177    0.0000 H   0  0  0  0  0  0  0  0  0  0  0  0
    6.4613   -2.0218    0.0000 H   0  0  0  0  0  0  0  0  0  0  0  0
    8.6928   -0.5105    0.0000 H   0  0  0  0  0  0  0  0  0  0  0  0
    8.6928    0.3190    0.0000 H   0  0  0  0  0  0  0  0  0  0  0  0
    5.4928   -2.9719    0.0000 H   0  0  0  0  0  0  0  0  0  0  0  0
    8.1516    2.2488    0.0000 H   0  0  0  0  0  0  0  0  0  0  0  0
    7.3221    1.4042    0.0000 H   0  0  0  0  0  0  0  0  0  0  0  0
    6.7021    2.0242    0.0000 H   0  0  0  0  0  0  0  0  0  0  0  0
    6.0821    1.4042    0.0000 H   0  0  0  0  0  0  0  0  0  0  0  0
    4.6878   -0.1074    0.0000 H   0  0  0  0  0  0  0  0  0  0  0  0
    4.0726    0.5173    0.0000 H   0  0  0  0  0  0  0  0  0  0  0  0
    3.4478   -0.0979    0.0000 H   0  0  0  0  0  0  0  0  0  0  0  0
    3.5576   -3.1298    0.0000 H   0  0  0  0  0  0  0  0  0  0  0  0
    9.7692    2.0410    0.0000 H   0  0  0  0  0  0  0  0  0  0  0  0
    7.7526    2.8178    0.0000 H   0  0  0  0  0  0  0  0  0  0  0  0
    6.8771    2.8652    0.0000 H   0  0  0  0  0  0  0  0  0  0  0  0
    6.8297    1.9897    0.0000 H   0  0  0  0  0  0  0  0  0  0  0  0
    3.7302   -3.6787    0.0000 H   0  0  0  0  0  0  0  0  0  0  0  0
    1.6389   -2.4594    0.0000 H   0  0  0  0  0  0  0  0  0  0  0  0
    1.6520   -0.7503    0.0000 H   0  0  0  0  0  0  0  0  0  0  0  0
    5.4961   -3.9730    0.0000 H   0  0  0  0  0  0  0  0  0  0  0  0
    9.0790    0.7938    0.0000 H   0  0  0  0  0  0  0  0  0  0  0  0
    9.8366    0.5461    0.0000 H   0  0  0  0  0  0  0  0  0  0  0  0
    2.0000   -3.5643    0.0000 H   0  0  0  0  0  0  0  0  0  0  0  0
   10.7902    0.1692    0.0000 H   0  0  0  0  0  0  0  0  0  0  0  0
   11.6658    0.1218    0.0000 H   0  0  0  0  0  0  0  0  0  0  0  0
   11.7132    0.9974    0.0000 H   0  0  0  0  0  0  0  0  0  0  0  0
   12.0009    1.8777    0.0000 H   0  0  0  0  0  0  0  0  0  0  0  0
   12.4797    2.6122    0.0000 H   0  0  0  0  0  0  0  0  0  0  0  0
   11.7452    3.0910    0.0000 H   0  0  0  0  0  0  0  0  0  0  0  0
 16  1  1  1  0  0  0
  1 62  1  0  0  0  0
 19  2  1  6  0  0  0
  2 65  1  0  0  0  0
 23  3  1  1  0  0  0
  3 68  1  0  0  0  0
  4 24  2  0  0  0  0
  5 25  1  0  0  0  0
  5 31  1  0  0  0  0
  6 31  2  0  0  0  0
  7  8  1  0  0  0  0
  7 11  1  0  0  0  0
  7 13  1  0  0  0  0
  7 21  1  1  0  0  0
  8  9  1  0  0  0  0
  8 14  1  0  0  0  0
  8 35  1  6  0  0  0
  9 10  1  0  0  0  0
  9 17  1  0  0  0  0
  9 36  1  1  0  0  0
 10 12  1  0  0  0  0
 10 15  1  0  0  0  0
 10 37  1  6  0  0  0
 11 18  1  0  0  0  0
 11 20  1  0  0  0  0
 11 38  1  6  0  0  0
 12 16  1  0  0  0  0
 12 22  1  1  0  0  0
 12 24  1  0  0  0  0
 13 15  1  0  0  0  0
 13 39  1  0  0  0  0
 13 40  1  0  0  0  0
 14 18  1  0  0  0  0
 14 41  1  0  0  0  0
 14 42  1  0  0  0  0
 15 43  1  0  0  0  0
 15 44  1  0  0  0  0
 16 19  1  0  0  0  0
 16 23  1  0  0  0  0
 17 19  1  0  0  0  0
 17 45  1  0  0  0  0
 17 46  1  0  0  0  0
 18 47  1  0  0  0  0
 18 48  1  0  0  0  0
 19 49  1  0  0  0  0
 20 25  1  0  0  0  0
 20 26  1  6  0  0  0
 20 50  1  0  0  0  0
 21 51  1  0  0  0  0
 21 52  1  0  0  0  0
 21 53  1  0  0  0  0
 22 54  1  0  0  0  0
 22 55  1  0  0  0  0
 22 56  1  0  0  0  0
 23 27  1  0  0  0  0
 23 57  1  0  0  0  0
 24 28  1  0  0  0  0
 25 29  1  0  0  0  0
 25 58  1  1  0  0  0
 26 59  1  0  0  0  0
 26 60  1  0  0  0  0
 26 61  1  0  0  0  0
 27 28  2  0  0  0  0
 27 63  1  0  0  0  0
 28 64  1  0  0  0  0
 29 30  1  0  0  0  0
 29 66  1  0  0  0  0
 29 67  1  0  0  0  0
 30 32  2  0  0  0  0
 30 33  1  0  0  0  0
 31 32  1  0  0  0  0
 32 34  1  0  0  0  0
 33 69  1  0  0  0  0
 33 70  1  0  0  0  0
 33 71  1  0  0  0  0
 34 72  1  0  0  0  0
 34 73  1  0  0  0  0
 34 74  1  0  0  0  0
M  END
> <PUBCHEM_COMPOUND_CID>
101168804

> <PUBCHEM_COMPOUND_CANONICALIZED>
1

> <PUBCHEM_CACTVS_COMPLEXITY>
968

> <PUBCHEM_CACTVS_HBOND_ACCEPTOR>
6

> <PUBCHEM_CACTVS_HBOND_DONOR>
3

> <PUBCHEM_CACTVS_ROTATABLE_BOND>
2

> <PUBCHEM_CACTVS_SUBSKEYS>
AAADcfB4OAAAAAAAAAAAAAAAAAAAAYAAAAAwYIEAAAAAAGDAAAAAGgAACAAAD1SggAICCAAABgCIAqDSCAAAAAAgAAAICAEAAEgBFBYAIQACUAAF4AAJMYOKyPCPgAAAAAAAAADAAAYAADCAAQAACAAAAA==

> <PUBCHEM_IUPAC_OPENEYE_NAME>
(2R)-4,5-dimethyl-2-[(1S)-1-[(4S,5S,6S,8S,9S,10R,13S,14S,17R)-4,5,6-trihydroxy-10,13-dimethyl-1-oxo-6,7,8,9,11,12,14,15,16,17-decahydro-4H-cyclopenta[a]phenanthren-17-yl]ethyl]-2,3-dihydropyran-6-one

> <PUBCHEM_IUPAC_CAS_NAME>
(2R)-4,5-dimethyl-2-[(1S)-1-[(4S,5S,6S,8S,9S,10R,13S,14S,17R)-4,5,6-trihydroxy-10,13-dimethyl-1-oxo-6,7,8,9,11,12,14,15,16,17-decahydro-4H-cyclopenta[a]phenanthren-17-yl]ethyl]-2,3-dihydropyran-6-one

> <PUBCHEM_IUPAC_NAME_MARKUP>
(2<I>R</I>)-4,5-dimethyl-2-[(1<I>S</I>)-1-[(4<I>S</I>,5<I>S</I>,6<I>S</I>,8<I>S</I>,9<I>S</I>,10<I>R</I>,13<I>S</I>,14<I>S</I>,17<I>R</I>)-4,5,6-trihydroxy-10,13-dimethyl-1-oxo-6,7,8,9,11,12,14,15,16,17-decahydro-4<I>H</I>-cyclopenta[a]phenanthren-17-yl]ethyl]-2,3-dihydropyran-6-one

> <PUBCHEM_IUPAC_NAME>
(2R)-4,5-dimethyl-2-[(1S)-1-[(4S,5S,6S,8S,9S,10R,13S,14S,17R)-4,5,6-trihydroxy-10,13-dimethyl-1-oxo-6,7,8,9,11,12,14,15,16,17-decahydro-4H-cyclopenta[a]phenanthren-17-yl]ethyl]-2,3-dihydropyran-6-one

> <PUBCHEM_IUPAC_SYSTEMATIC_NAME>
(2R)-2-[(1S)-1-[(4S,5S,6S,8S,9S,10R,13S,14S,17R)-10,13-dimethyl-4,5,6-tris(oxidanyl)-1-oxidanylidene-6,7,8,9,11,12,14,15,16,17-decahydro-4H-cyclopenta[a]phenanthren-17-yl]ethyl]-4,5-dimethyl-2,3-dihydropyran-6-one

> <PUBCHEM_IUPAC_TRADITIONAL_NAME>
(2R)-4,5-dimethyl-2-[(1S)-1-[(4S,5S,6S,8S,9S,10R,13S,14S,17R)-4,5,6-trihydroxy-1-keto-10,13-dimethyl-6,7,8,9,11,12,14,15,16,17-decahydro-4H-cyclopenta[a]phenanthren-17-yl]ethyl]-2,3-dihydropyran-6-one

> <PUBCHEM_IUPAC_INCHI>
InChI=1S/C28H40O6/c1-14-12-21(34-25(32)15(14)2)16(3)18-6-7-19-17-13-24(31)28(33)23(30)9-8-22(29)27(28,5)20(17)10-11-26(18,19)4/h8-9,16-21,23-24,30-31,33H,6-7,10-13H2,1-5H3/t16-,17-,18+,19-,20-,21+,23-,24-,26+,27-,28+/m0/s1

> <PUBCHEM_IUPAC_INCHIKEY>
LKOWORADPAJPEL-GCQTYTONSA-N

> <PUBCHEM_XLOGP3_AA>
3.5

> <PUBCHEM_EXACT_MASS>
472.28248899

> <PUBCHEM_MOLECULAR_FORMULA>
C28H40O6

> <PUBCHEM_MOLECULAR_WEIGHT>
472.6

> <PUBCHEM_OPENEYE_CAN_SMILES>
CC1=C(C(=O)OC(C1)C(C)C2CCC3C2(CCC4C3CC(C5(C4(C(=O)C=CC5O)C)O)O)C)C

> <PUBCHEM_OPENEYE_ISO_SMILES>
CC1=C(C(=O)O[C@H](C1)[C@@H](C)[C@H]2CC[C@@H]3[C@@]2(CC[C@H]4[C@H]3C[C@@H]([C@]5([C@@]4(C(=O)C=C[C@@H]5O)C)O)O)C)C

> <PUBCHEM_CACTVS_TPSA>
104

> <PUBCHEM_MONOISOTOPIC_WEIGHT>
472.28248899

> <PUBCHEM_TOTAL_CHARGE>
0

> <PUBCHEM_HEAVY_ATOM_COUNT>
34

> <PUBCHEM_ATOM_DEF_STEREO_COUNT>
11

> <PUBCHEM_ATOM_UDEF_STEREO_COUNT>
0

> <PUBCHEM_BOND_DEF_STEREO_COUNT>
0

> <PUBCHEM_BOND_UDEF_STEREO_COUNT>
0

> <PUBCHEM_ISOTOPIC_ATOM_COUNT>
0

> <PUBCHEM_COMPONENT_COUNT>
1

> <PUBCHEM_CACTVS_TAUTO_COUNT>
-1

> <PUBCHEM_COORDINATE_TYPE>
1
5
255

> <PUBCHEM_BONDANNOTATIONS>
16  1  5
10  37  6
11  38  6
12  22  5
19  2  6
20  26  6
25  58  5
23  3  5
7  21  5
8  35  6
9  36  5

$$$$
