 
  -OEChem-10192104082D

 30 30  0     1  0  0  0  0  0999 V2000
    3.7601    0.4880    0.0000 O   0  0  0  0  0  0  0  0  0  0  0  0
    5.7281   -0.2114    0.0000 O   0  0  0  0  0  0  0  0  0  0  0  0
    7.2144    1.1269    0.0000 O   0  0  0  0  0  0  0  0  0  0  0  0
    6.0554    2.4140    0.0000 O   0  0  0  0  0  0  0  0  0  0  0  0
    7.8381   -1.8076    0.0000 O   0  0  0  0  0  0  0  0  0  0  0  0
    4.5691    1.0758    0.0000 C   0  0  3  0  0  0  0  0  0  0  0  0
    4.2601    2.0268    0.0000 C   0  0  0  0  0  0  0  0  0  0  0  0
    3.2601    2.0268    0.0000 C   0  0  0  0  0  0  0  0  0  0  0  0
    2.9511    1.0758    0.0000 C   0  0  3  0  0  0  0  0  0  0  0  0
    5.5202    0.7668    0.0000 C   0  0  3  0  0  0  0  0  0  0  0  0
    2.0000    0.7668    0.0000 C   0  0  0  0  0  0  0  0  0  0  0  0
    6.2633    1.4359    0.0000 C   0  0  0  0  0  0  0  0  0  0  0  0
    6.6791   -0.5204    0.0000 C   0  0  0  0  0  0  0  0  0  0  0  0
    6.8870   -1.4986    0.0000 C   0  0  0  0  0  0  0  0  0  0  0  0
    5.0075    1.5142    0.0000 H   0  0  0  0  0  0  0  0  0  0  0  0
    4.8665    2.1557    0.0000 H   0  0  0  0  0  0  0  0  0  0  0  0
    4.1953    2.6434    0.0000 H   0  0  0  0  0  0  0  0  0  0  0  0
    3.3249    2.6434    0.0000 H   0  0  0  0  0  0  0  0  0  0  0  0
    2.6536    2.1557    0.0000 H   0  0  0  0  0  0  0  0  0  0  0  0
    2.8541    0.4634    0.0000 H   0  0  0  0  0  0  0  0  0  0  0  0
    5.0594    0.3519    0.0000 H   0  0  0  0  0  0  0  0  0  0  0  0
    1.8084    1.3564    0.0000 H   0  0  0  0  0  0  0  0  0  0  0  0
    1.4103    0.5752    0.0000 H   0  0  0  0  0  0  0  0  0  0  0  0
    2.1916    0.1771    0.0000 H   0  0  0  0  0  0  0  0  0  0  0  0
    7.2987   -0.4988    0.0000 H   0  0  0  0  0  0  0  0  0  0  0  0
    6.7654    0.0936    0.0000 H   0  0  0  0  0  0  0  0  0  0  0  0
    6.2674   -1.5202    0.0000 H   0  0  0  0  0  0  0  0  0  0  0  0
    6.8007   -2.1125    0.0000 H   0  0  0  0  0  0  0  0  0  0  0  0
    7.6751    1.5417    0.0000 H   0  0  0  0  0  0  0  0  0  0  0  0
    7.9670   -2.4140    0.0000 H   0  0  0  0  0  0  0  0  0  0  0  0
  1  6  1  0  0  0  0
  1  9  1  0  0  0  0
  2 10  1  0  0  0  0
  2 13  1  0  0  0  0
  3 12  1  0  0  0  0
  3 29  1  0  0  0  0
  4 12  2  0  0  0  0
  5 14  1  0  0  0  0
  5 30  1  0  0  0  0
  6  7  1  0  0  0  0
  6 10  1  0  0  0  0
  6 15  1  0  0  0  0
  7  8  1  0  0  0  0
  7 16  1  0  0  0  0
  7 17  1  0  0  0  0
  8  9  1  0  0  0  0
  8 18  1  0  0  0  0
  8 19  1  0  0  0  0
  9 11  1  0  0  0  0
  9 20  1  0  0  0  0
 10 12  1  0  0  0  0
 10 21  1  0  0  0  0
 11 22  1  0  0  0  0
 11 23  1  0  0  0  0
 11 24  1  0  0  0  0
 13 14  1  0  0  0  0
 13 25  1  0  0  0  0
 13 26  1  0  0  0  0
 14 27  1  0  0  0  0
 14 28  1  0  0  0  0
M  END
> <PUBCHEM_COMPOUND_CID>
103377566

> <PUBCHEM_COMPOUND_CANONICALIZED>
1

> <PUBCHEM_CACTVS_COMPLEXITY>
194

> <PUBCHEM_CACTVS_HBOND_ACCEPTOR>
5

> <PUBCHEM_CACTVS_HBOND_DONOR>
2

> <PUBCHEM_CACTVS_ROTATABLE_BOND>
5

> <PUBCHEM_CACTVS_SUBSKEYS>
AAADceBwOAAAAAAAAAAAAAAAAAAAASAAAAAAAAAAAAAAAAAAAAAAGgAACAAACBSggAICCAAABgAIAACQCAIAAAAAAAAAAAFAAAABEBYAAAQCQAAFIAADAAGI6CyAAAAAAAAAAAAAAAAAAAAAAAAAAAAAAA==

> <PUBCHEM_IUPAC_OPENEYE_NAME>
2-(2-hydroxyethoxy)-2-(5-methyltetrahydrofuran-2-yl)acetic acid

> <PUBCHEM_IUPAC_CAS_NAME>
2-(2-hydroxyethoxy)-2-(5-methyl-2-oxolanyl)acetic acid

> <PUBCHEM_IUPAC_NAME_MARKUP>
2-(2-hydroxyethoxy)-2-(5-methyloxolan-2-yl)acetic acid

> <PUBCHEM_IUPAC_NAME>
2-(2-hydroxyethoxy)-2-(5-methyloxolan-2-yl)acetic acid

> <PUBCHEM_IUPAC_SYSTEMATIC_NAME>
2-(2-hydroxyethyloxy)-2-(5-methyloxolan-2-yl)ethanoic acid

> <PUBCHEM_IUPAC_TRADITIONAL_NAME>
2-(2-hydroxyethoxy)-2-(5-methyltetrahydrofuran-2-yl)acetic acid

> <PUBCHEM_IUPAC_INCHI>
InChI=1S/C9H16O5/c1-6-2-3-7(14-6)8(9(11)12)13-5-4-10/h6-8,10H,2-5H2,1H3,(H,11,12)

> <PUBCHEM_IUPAC_INCHIKEY>
UPFSXDGCLVYONB-UHFFFAOYSA-N

> <PUBCHEM_XLOGP3_AA>
-0.1

> <PUBCHEM_EXACT_MASS>
204.09977361

> <PUBCHEM_MOLECULAR_FORMULA>
C9H16O5

> <PUBCHEM_MOLECULAR_WEIGHT>
204.22

> <PUBCHEM_OPENEYE_CAN_SMILES>
CC1CCC(O1)C(C(=O)O)OCCO

> <PUBCHEM_OPENEYE_ISO_SMILES>
CC1CCC(O1)C(C(=O)O)OCCO

> <PUBCHEM_CACTVS_TPSA>
76

> <PUBCHEM_MONOISOTOPIC_WEIGHT>
204.09977361

> <PUBCHEM_TOTAL_CHARGE>
0

> <PUBCHEM_HEAVY_ATOM_COUNT>
14

> <PUBCHEM_ATOM_DEF_STEREO_COUNT>
0

> <PUBCHEM_ATOM_UDEF_STEREO_COUNT>
3

> <PUBCHEM_BOND_DEF_STEREO_COUNT>
0

> <PUBCHEM_BOND_UDEF_STEREO_COUNT>
0

> <PUBCHEM_ISOTOPIC_ATOM_COUNT>
0

> <PUBCHEM_COMPONENT_COUNT>
1

> <PUBCHEM_CACTVS_TAUTO_COUNT>
-1

> <PUBCHEM_COORDINATE_TYPE>
1
5
255

> <PUBCHEM_BONDANNOTATIONS>
10  12  3
6  7  3
9  11  3

$$$$
