 
  -OEChem-10192103322D

 46 48  0     0  0  0  0  0  0999 V2000
    3.7601   -0.3458    0.0000 S   0  0  0  0  0  0  0  0  0  0  0  0
    4.7601   -0.3458    0.0000 O   0  0  0  0  0  0  0  0  0  0  0  0
    2.7601   -0.3458    0.0000 O   0  0  0  0  0  0  0  0  0  0  0  0
    3.0790   -4.6072    0.0000 O   0  0  0  0  0  0  0  0  0  0  0  0
    3.7601    0.6542    0.0000 N   0  0  0  0  0  0  0  0  0  0  0  0
    3.7601    3.0684    0.0000 N   0  0  0  0  0  0  0  0  0  0  0  0
    4.5691    3.6562    0.0000 N   0  0  0  0  0  0  0  0  0  0  0  0
    3.2601   -2.8847    0.0000 N   0  0  0  0  0  0  0  0  0  0  0  0
    3.2601    4.6072    0.0000 N   0  0  0  0  0  0  0  0  0  0  0  0
    4.2601   -2.8847    0.0000 N   0  0  0  0  0  0  0  0  0  0  0  0
    3.7601    2.0684    0.0000 C   0  0  0  0  0  0  0  0  0  0  0  0
    4.4672    1.3613    0.0000 C   0  0  0  0  0  0  0  0  0  0  0  0
    3.0530    1.3613    0.0000 C   0  0  0  0  0  0  0  0  0  0  0  0
    3.7601   -1.3458    0.0000 C   0  0  0  0  0  0  0  0  0  0  0  0
    2.9511    3.6562    0.0000 C   0  0  0  0  0  0  0  0  0  0  0  0
    2.9511   -1.9336    0.0000 C   0  0  0  0  0  0  0  0  0  0  0  0
    4.5691   -1.9336    0.0000 C   0  0  0  0  0  0  0  0  0  0  0  0
    4.2601    4.6072    0.0000 C   0  0  0  0  0  0  0  0  0  0  0  0
    2.0000    3.3472    0.0000 C   0  0  0  0  0  0  0  0  0  0  0  0
    2.0000   -1.6246    0.0000 C   0  0  0  0  0  0  0  0  0  0  0  0
    5.5202   -1.6246    0.0000 C   0  0  0  0  0  0  0  0  0  0  0  0
    2.6723   -3.6937    0.0000 C   0  0  0  0  0  0  0  0  0  0  0  0
    4.8479    5.4162    0.0000 C   0  0  0  0  0  0  0  0  0  0  0  0
    2.4912   -5.4162    0.0000 C   0  0  0  0  0  0  0  0  0  0  0  0
    3.1873    2.3056    0.0000 H   0  0  0  0  0  0  0  0  0  0  0  0
    4.9056    0.9229    0.0000 H   0  0  0  0  0  0  0  0  0  0  0  0
    4.9056    1.7997    0.0000 H   0  0  0  0  0  0  0  0  0  0  0  0
    2.6146    1.7997    0.0000 H   0  0  0  0  0  0  0  0  0  0  0  0
    2.6146    0.9229    0.0000 H   0  0  0  0  0  0  0  0  0  0  0  0
    1.8084    3.9368    0.0000 H   0  0  0  0  0  0  0  0  0  0  0  0
    1.4103    3.1556    0.0000 H   0  0  0  0  0  0  0  0  0  0  0  0
    2.1916    2.7575    0.0000 H   0  0  0  0  0  0  0  0  0  0  0  0
    2.1916   -1.0349    0.0000 H   0  0  0  0  0  0  0  0  0  0  0  0
    1.4103   -1.4330    0.0000 H   0  0  0  0  0  0  0  0  0  0  0  0
    1.8084   -2.2142    0.0000 H   0  0  0  0  0  0  0  0  0  0  0  0
    5.7117   -2.2142    0.0000 H   0  0  0  0  0  0  0  0  0  0  0  0
    6.1098   -1.4330    0.0000 H   0  0  0  0  0  0  0  0  0  0  0  0
    5.3286   -1.0349    0.0000 H   0  0  0  0  0  0  0  0  0  0  0  0
    2.2416   -3.2477    0.0000 H   0  0  0  0  0  0  0  0  0  0  0  0
    2.1583   -4.0404    0.0000 H   0  0  0  0  0  0  0  0  0  0  0  0
    5.3494    5.0518    0.0000 H   0  0  0  0  0  0  0  0  0  0  0  0
    5.2123    5.9178    0.0000 H   0  0  0  0  0  0  0  0  0  0  0  0
    4.3463    5.7807    0.0000 H   0  0  0  0  0  0  0  0  0  0  0  0
    1.9896   -5.0518    0.0000 H   0  0  0  0  0  0  0  0  0  0  0  0
    2.1268   -5.9178    0.0000 H   0  0  0  0  0  0  0  0  0  0  0  0
    2.9928   -5.7807    0.0000 H   0  0  0  0  0  0  0  0  0  0  0  0
  1  2  2  0  0  0  0
  1  3  2  0  0  0  0
  1  5  1  0  0  0  0
  1 14  1  0  0  0  0
  4 22  1  0  0  0  0
  4 24  1  0  0  0  0
  5 12  1  0  0  0  0
  5 13  1  0  0  0  0
  6  7  1  0  0  0  0
  6 11  1  0  0  0  0
  6 15  1  0  0  0  0
  7 18  2  0  0  0  0
  8 10  1  0  0  0  0
  8 16  1  0  0  0  0
  8 22  1  0  0  0  0
  9 15  2  0  0  0  0
  9 18  1  0  0  0  0
 10 17  2  0  0  0  0
 11 12  1  0  0  0  0
 11 13  1  0  0  0  0
 11 25  1  0  0  0  0
 12 26  1  0  0  0  0
 12 27  1  0  0  0  0
 13 28  1  0  0  0  0
 13 29  1  0  0  0  0
 14 16  2  0  0  0  0
 14 17  1  0  0  0  0
 15 19  1  0  0  0  0
 16 20  1  0  0  0  0
 17 21  1  0  0  0  0
 18 23  1  0  0  0  0
 19 30  1  0  0  0  0
 19 31  1  0  0  0  0
 19 32  1  0  0  0  0
 20 33  1  0  0  0  0
 20 34  1  0  0  0  0
 20 35  1  0  0  0  0
 21 36  1  0  0  0  0
 21 37  1  0  0  0  0
 21 38  1  0  0  0  0
 22 39  1  0  0  0  0
 22 40  1  0  0  0  0
 23 41  1  0  0  0  0
 23 42  1  0  0  0  0
 23 43  1  0  0  0  0
 24 44  1  0  0  0  0
 24 45  1  0  0  0  0
 24 46  1  0  0  0  0
M  END
> <PUBCHEM_COMPOUND_CID>
128440386

> <PUBCHEM_COMPOUND_CANONICALIZED>
1

> <PUBCHEM_CACTVS_COMPLEXITY>
549

> <PUBCHEM_CACTVS_HBOND_ACCEPTOR>
7

> <PUBCHEM_CACTVS_HBOND_DONOR>
0

> <PUBCHEM_CACTVS_ROTATABLE_BOND>
5

> <PUBCHEM_CACTVS_SUBSKEYS>
AAADceBzsABAAAAAAAAAAAAAAABYAWLAAAAAAAAAAAAAAAAB4AAAHgQIQAAACCjBVwYDkZYIFAKiAQZgZHDQhBshgKAVWDQ4RBiAaAJAyNAUhAhoCALISAIAAAAAAAAAAAAAAAAAAAAAAAAAAAAAAAAAAA==

> <PUBCHEM_IUPAC_OPENEYE_NAME>
1-[1-[1-(methoxymethyl)-3,5-dimethyl-pyrazol-4-yl]sulfonylazetidin-3-yl]-3,5-dimethyl-1,2,4-triazole

> <PUBCHEM_IUPAC_CAS_NAME>
1-[1-[[1-(methoxymethyl)-3,5-dimethyl-4-pyrazolyl]sulfonyl]-3-azetidinyl]-3,5-dimethyl-1,2,4-triazole

> <PUBCHEM_IUPAC_NAME_MARKUP>
1-[1-[1-(methoxymethyl)-3,5-dimethylpyrazol-4-yl]sulfonylazetidin-3-yl]-3,5-dimethyl-1,2,4-triazole

> <PUBCHEM_IUPAC_NAME>
1-[1-[1-(methoxymethyl)-3,5-dimethylpyrazol-4-yl]sulfonylazetidin-3-yl]-3,5-dimethyl-1,2,4-triazole

> <PUBCHEM_IUPAC_SYSTEMATIC_NAME>
1-[1-[1-(methoxymethyl)-3,5-dimethyl-pyrazol-4-yl]sulfonylazetidin-3-yl]-3,5-dimethyl-1,2,4-triazole

> <PUBCHEM_IUPAC_TRADITIONAL_NAME>
1-[1-[1-(methoxymethyl)-3,5-dimethyl-pyrazol-4-yl]sulfonylazetidin-3-yl]-3,5-dimethyl-1,2,4-triazole

> <PUBCHEM_IUPAC_INCHI>
InChI=1S/C14H22N6O3S/c1-9-14(10(2)19(16-9)8-23-5)24(21,22)18-6-13(7-18)20-12(4)15-11(3)17-20/h13H,6-8H2,1-5H3

> <PUBCHEM_IUPAC_INCHIKEY>
JDCBRDGMECOPRI-UHFFFAOYSA-N

> <PUBCHEM_XLOGP3_AA>
0.4

> <PUBCHEM_EXACT_MASS>
354.14740976

> <PUBCHEM_MOLECULAR_FORMULA>
C14H22N6O3S

> <PUBCHEM_MOLECULAR_WEIGHT>
354.43

> <PUBCHEM_OPENEYE_CAN_SMILES>
CC1=C(C(=NN1COC)C)S(=O)(=O)N2CC(C2)N3C(=NC(=N3)C)C

> <PUBCHEM_OPENEYE_ISO_SMILES>
CC1=C(C(=NN1COC)C)S(=O)(=O)N2CC(C2)N3C(=NC(=N3)C)C

> <PUBCHEM_CACTVS_TPSA>
104

> <PUBCHEM_MONOISOTOPIC_WEIGHT>
354.14740976

> <PUBCHEM_TOTAL_CHARGE>
0

> <PUBCHEM_HEAVY_ATOM_COUNT>
24

> <PUBCHEM_ATOM_DEF_STEREO_COUNT>
0

> <PUBCHEM_ATOM_UDEF_STEREO_COUNT>
0

> <PUBCHEM_BOND_DEF_STEREO_COUNT>
0

> <PUBCHEM_BOND_UDEF_STEREO_COUNT>
0

> <PUBCHEM_ISOTOPIC_ATOM_COUNT>
0

> <PUBCHEM_COMPONENT_COUNT>
1

> <PUBCHEM_CACTVS_TAUTO_COUNT>
-1

> <PUBCHEM_COORDINATE_TYPE>
1
5
255

> <PUBCHEM_BONDANNOTATIONS>
10  17  8
14  16  8
14  17  8
6  15  8
6  7  8
7  18  8
8  10  8
8  16  8
9  15  8
9  18  8

$$$$
