 
  -OEChem-10192103362D

 34 33  0     1  0  0  0  0  0999 V2000
    6.8671   -0.5950    0.0000 O   0  0  0  0  0  0  0  0  0  0  0  0
    5.1350   -0.5950    0.0000 O   0  0  0  0  0  0  0  0  0  0  0  0
    2.5369    0.9050    0.0000 O   0  0  0  0  0  0  0  0  0  0  0  0
    3.4030   -0.5950    0.0000 O   0  0  0  0  0  0  0  0  0  0  0  0
    6.8671    0.4050    0.0000 C   0  0  2  0  0  0  0  0  0  0  0  0
    7.7331    0.9050    0.0000 C   0  0  0  0  0  0  0  0  0  0  0  0
    6.0010    0.9050    0.0000 C   0  0  0  0  0  0  0  0  0  0  0  0
    8.5991    0.4050    0.0000 C   0  0  0  0  0  0  0  0  0  0  0  0
    5.1350    0.4050    0.0000 C   0  0  2  0  0  0  0  0  0  0  0  0
    9.4651    0.9050    0.0000 C   0  0  0  0  0  0  0  0  0  0  0  0
    4.2690    0.9050    0.0000 C   0  0  0  0  0  0  0  0  0  0  0  0
   10.3312    0.4050    0.0000 C   0  0  0  0  0  0  0  0  0  0  0  0
   11.1972    0.9050    0.0000 C   0  0  0  0  0  0  0  0  0  0  0  0
    3.4030    0.4050    0.0000 C   0  0  0  0  0  0  0  0  0  0  0  0
    6.3301    0.0950    0.0000 H   0  0  0  0  0  0  0  0  0  0  0  0
    8.1316    1.3800    0.0000 H   0  0  0  0  0  0  0  0  0  0  0  0
    7.3346    1.3800    0.0000 H   0  0  0  0  0  0  0  0  0  0  0  0
    6.3996    1.3800    0.0000 H   0  0  0  0  0  0  0  0  0  0  0  0
    5.6025    1.3800    0.0000 H   0  0  0  0  0  0  0  0  0  0  0  0
    8.2006   -0.0699    0.0000 H   0  0  0  0  0  0  0  0  0  0  0  0
    8.9976   -0.0699    0.0000 H   0  0  0  0  0  0  0  0  0  0  0  0
    5.6720    0.0950    0.0000 H   0  0  0  0  0  0  0  0  0  0  0  0
    9.8637    1.3800    0.0000 H   0  0  0  0  0  0  0  0  0  0  0  0
    9.0666    1.3800    0.0000 H   0  0  0  0  0  0  0  0  0  0  0  0
    4.6675    1.3800    0.0000 H   0  0  0  0  0  0  0  0  0  0  0  0
    3.8705    1.3800    0.0000 H   0  0  0  0  0  0  0  0  0  0  0  0
    9.9326   -0.0699    0.0000 H   0  0  0  0  0  0  0  0  0  0  0  0
   10.7297   -0.0699    0.0000 H   0  0  0  0  0  0  0  0  0  0  0  0
    7.4040   -0.9050    0.0000 H   0  0  0  0  0  0  0  0  0  0  0  0
   11.5072    0.3681    0.0000 H   0  0  0  0  0  0  0  0  0  0  0  0
   11.7341    1.2150    0.0000 H   0  0  0  0  0  0  0  0  0  0  0  0
   10.8872    1.4419    0.0000 H   0  0  0  0  0  0  0  0  0  0  0  0
    4.5981   -0.9050    0.0000 H   0  0  0  0  0  0  0  0  0  0  0  0
    2.0000    0.5950    0.0000 H   0  0  0  0  0  0  0  0  0  0  0  0
  5  1  1  1  0  0  0
  1 29  1  0  0  0  0
  9  2  1  1  0  0  0
  2 33  1  0  0  0  0
  3 14  1  0  0  0  0
  3 34  1  0  0  0  0
  4 14  2  0  0  0  0
  5  6  1  0  0  0  0
  5  7  1  0  0  0  0
  5 15  1  0  0  0  0
  6  8  1  0  0  0  0
  6 16  1  0  0  0  0
  6 17  1  0  0  0  0
  7  9  1  0  0  0  0
  7 18  1  0  0  0  0
  7 19  1  0  0  0  0
  8 10  1  0  0  0  0
  8 20  1  0  0  0  0
  8 21  1  0  0  0  0
  9 11  1  0  0  0  0
  9 22  1  0  0  0  0
 10 12  1  0  0  0  0
 10 23  1  0  0  0  0
 10 24  1  0  0  0  0
 11 14  1  0  0  0  0
 11 25  1  0  0  0  0
 11 26  1  0  0  0  0
 12 13  1  0  0  0  0
 12 27  1  0  0  0  0
 12 28  1  0  0  0  0
 13 30  1  0  0  0  0
 13 31  1  0  0  0  0
 13 32  1  0  0  0  0
M  END
> <PUBCHEM_COMPOUND_CID>
11424257

> <PUBCHEM_COMPOUND_CANONICALIZED>
1

> <PUBCHEM_CACTVS_COMPLEXITY>
158

> <PUBCHEM_CACTVS_HBOND_ACCEPTOR>
4

> <PUBCHEM_CACTVS_HBOND_DONOR>
3

> <PUBCHEM_CACTVS_ROTATABLE_BOND>
8

> <PUBCHEM_CACTVS_SUBSKEYS>
AAADceBwOAAAAAAAAAAAAAAAAAAAAAAAAAAAAAAAAAAAAAAAAAAAGgAACAAACBSggAICCAAAAgAIAACQCAAAAAAAAAAAAAEAAAAAEBYAAAAAQAAFIAAAAAGI7KTAAAAAAAAAAAAAAAAAAAAAAAAAAAAAAA==

> <PUBCHEM_IUPAC_OPENEYE_NAME>
(3R,5R)-3,5-dihydroxydecanoic acid

> <PUBCHEM_IUPAC_CAS_NAME>
(3R,5R)-3,5-dihydroxydecanoic acid

> <PUBCHEM_IUPAC_NAME_MARKUP>
(3<I>R</I>,5<I>R</I>)-3,5-dihydroxydecanoic acid

> <PUBCHEM_IUPAC_NAME>
(3R,5R)-3,5-dihydroxydecanoic acid

> <PUBCHEM_IUPAC_SYSTEMATIC_NAME>
(3R,5R)-3,5-bis(oxidanyl)decanoic acid

> <PUBCHEM_IUPAC_TRADITIONAL_NAME>
(3R,5R)-3,5-dihydroxycapric acid

> <PUBCHEM_IUPAC_INCHI>
InChI=1S/C10H20O4/c1-2-3-4-5-8(11)6-9(12)7-10(13)14/h8-9,11-12H,2-7H2,1H3,(H,13,14)/t8-,9-/m1/s1

> <PUBCHEM_IUPAC_INCHIKEY>
WQZRAWSNEARGPQ-RKDXNWHRSA-N

> <PUBCHEM_XLOGP3_AA>
1.2

> <PUBCHEM_EXACT_MASS>
204.13615911

> <PUBCHEM_MOLECULAR_FORMULA>
C10H20O4

> <PUBCHEM_MOLECULAR_WEIGHT>
204.26

> <PUBCHEM_OPENEYE_CAN_SMILES>
CCCCCC(CC(CC(=O)O)O)O

> <PUBCHEM_OPENEYE_ISO_SMILES>
CCCCC[C@H](C[C@H](CC(=O)O)O)O

> <PUBCHEM_CACTVS_TPSA>
77.8

> <PUBCHEM_MONOISOTOPIC_WEIGHT>
204.13615911

> <PUBCHEM_TOTAL_CHARGE>
0

> <PUBCHEM_HEAVY_ATOM_COUNT>
14

> <PUBCHEM_ATOM_DEF_STEREO_COUNT>
2

> <PUBCHEM_ATOM_UDEF_STEREO_COUNT>
0

> <PUBCHEM_BOND_DEF_STEREO_COUNT>
0

> <PUBCHEM_BOND_UDEF_STEREO_COUNT>
0

> <PUBCHEM_ISOTOPIC_ATOM_COUNT>
0

> <PUBCHEM_COMPONENT_COUNT>
1

> <PUBCHEM_CACTVS_TAUTO_COUNT>
-1

> <PUBCHEM_COORDINATE_TYPE>
1
5
255

> <PUBCHEM_BONDANNOTATIONS>
5  1  5
9  2  5

$$$$
