 
  -OEChem-10192103462D

 84 87  0     1  0  0  0  0  0999 V2000
    7.1350    1.7990    0.0000 O   0  0  0  0  0  0  0  0  0  0  0  0
    5.6350   -1.7990    0.0000 O   0  0  0  0  0  0  0  0  0  0  0  0
    8.1350    0.0670    0.0000 O   0  0  0  0  0  0  0  0  0  0  0  0
    4.2690   -0.9689    0.0000 O   0  0  0  0  0  0  0  0  0  0  0  0
    4.2690    3.0311    0.0000 O   0  0  0  0  0  0  0  0  0  0  0  0
    4.1839    1.4587    0.0000 O   0  0  0  0  0  0  0  0  0  0  0  0
    5.1350    1.5311    0.0000 O   0  0  0  0  0  0  0  0  0  0  0  0
    5.1316    0.0573    0.0000 O   0  0  0  0  0  0  0  0  0  0  0  0
    7.2841    0.7063    0.0000 O   0  0  0  0  0  0  0  0  0  0  0  0
    5.1283    0.8068    0.0000 O   0  0  0  0  0  0  0  0  0  0  0  0
    2.5369    0.0311    0.0000 O   0  0  0  0  0  0  0  0  0  0  0  0
    8.1350    3.5311    0.0000 O   0  0  0  0  0  0  0  0  0  0  0  0
    2.5369    2.0311    0.0000 O   0  0  0  0  0  0  0  0  0  0  0  0
    6.6350   -3.5311    0.0000 O   0  0  0  0  0  0  0  0  0  0  0  0
    6.0010   -0.9689    0.0000 O   0  0  0  0  0  0  0  0  0  0  0  0
    5.6350    2.6651    0.0000 C   0  0  3  0  0  0  0  0  0  0  0  0
    5.1249    1.7971    0.0000 C   0  0  3  0  0  0  0  0  0  0  0  0
    7.1350   -0.9330    0.0000 C   0  0  3  0  0  0  0  0  0  0  0  0
    6.6350    2.6651    0.0000 C   0  0  3  0  0  0  0  0  0  0  0  0
    6.6350    0.9330    0.0000 C   0  0  3  0  0  0  0  0  0  0  0  0
    5.6283    0.9253    0.0000 C   0  0  3  0  0  0  0  0  0  0  0  0
    6.6384   -0.0573    0.0000 C   0  0  3  0  0  0  0  0  0  0  0  0
    5.1350   -0.9330    0.0000 C   0  0  3  0  0  0  0  0  0  0  0  0
    6.6350   -1.7990    0.0000 C   0  0  3  0  0  0  0  0  0  0  0  0
    5.6316   -0.0573    0.0000 C   0  0  3  0  0  0  0  0  0  0  0  0
    8.1350   -0.9330    0.0000 C   0  0  3  0  0  0  0  0  0  0  0  0
    5.1350    3.5311    0.0000 C   0  0  0  0  0  0  0  0  0  0  0  0
    7.1350    0.0670    0.0000 C   0  0  3  0  0  0  0  0  0  0  0  0
    6.1417    3.5272    0.0000 C   0  0  0  0  0  0  0  0  0  0  0  0
    4.2690    0.0311    0.0000 C   0  0  3  0  0  0  0  0  0  0  0  0
    3.4030    0.5311    0.0000 C   0  0  3  0  0  0  0  0  0  0  0  0
    4.2690    2.0311    0.0000 C   0  0  3  0  0  0  0  0  0  0  0  0
    7.1350    3.5311    0.0000 C   0  0  0  0  0  0  0  0  0  0  0  0
    5.1350    0.5311    0.0000 C   0  0  3  0  0  0  0  0  0  0  0  0
    3.4030    1.5311    0.0000 C   0  0  3  0  0  0  0  0  0  0  0  0
    4.6531   -1.8092    0.0000 C   0  0  0  0  0  0  0  0  0  0  0  0
    7.1350   -2.6651    0.0000 C   0  0  0  0  0  0  0  0  0  0  0  0
    8.8421   -1.6401    0.0000 C   0  0  0  0  0  0  0  0  0  0  0  0
    6.6350   -0.7990    0.0000 C   0  0  0  0  0  0  0  0  0  0  0  0
    6.0010    0.0311    0.0000 C   0  0  0  0  0  0  0  0  0  0  0  0
    4.7292    2.2744    0.0000 H   0  0  0  0  0  0  0  0  0  0  0  0
    7.4471   -0.3973    0.0000 H   0  0  0  0  0  0  0  0  0  0  0  0
    7.2550    2.6651    0.0000 H   0  0  0  0  0  0  0  0  0  0  0  0
    7.2550    0.9330    0.0000 H   0  0  0  0  0  0  0  0  0  0  0  0
    5.9414    0.3901    0.0000 H   0  0  0  0  0  0  0  0  0  0  0  0
    6.3774    0.5051    0.0000 H   0  0  0  0  0  0  0  0  0  0  0  0
    6.3250   -2.3360    0.0000 H   0  0  0  0  0  0  0  0  0  0  0  0
    5.0117   -0.0609    0.0000 H   0  0  0  0  0  0  0  0  0  0  0  0
    8.7078   -0.6957    0.0000 H   0  0  0  0  0  0  0  0  0  0  0  0
    5.6720    3.8411    0.0000 H   0  0  0  0  0  0  0  0  0  0  0  0
    4.8250    4.0680    0.0000 H   0  0  0  0  0  0  0  0  0  0  0  0
    7.4450   -0.4699    0.0000 H   0  0  0  0  0  0  0  0  0  0  0  0
    4.8059   -0.2789    0.0000 H   0  0  0  0  0  0  0  0  0  0  0  0
    6.6762    3.2131    0.0000 H   0  0  0  0  0  0  0  0  0  0  0  0
    6.4558    4.0617    0.0000 H   0  0  0  0  0  0  0  0  0  0  0  0
    5.6071    3.8413    0.0000 H   0  0  0  0  0  0  0  0  0  0  0  0
    3.4030   -0.0889    0.0000 H   0  0  0  0  0  0  0  0  0  0  0  0
    4.8059    2.3411    0.0000 H   0  0  0  0  0  0  0  0  0  0  0  0
    5.6720    0.8411    0.0000 H   0  0  0  0  0  0  0  0  0  0  0  0
    7.2427    4.1417    0.0000 H   0  0  0  0  0  0  0  0  0  0  0  0
    6.5524    3.7431    0.0000 H   0  0  0  0  0  0  0  0  0  0  0  0
    3.4030    2.1511    0.0000 H   0  0  0  0  0  0  0  0  0  0  0  0
    4.1098   -1.5104    0.0000 H   0  0  0  0  0  0  0  0  0  0  0  0
    4.3543   -2.3524    0.0000 H   0  0  0  0  0  0  0  0  0  0  0  0
    5.1963   -2.1080    0.0000 H   0  0  0  0  0  0  0  0  0  0  0  0
    7.6100   -3.0636    0.0000 H   0  0  0  0  0  0  0  0  0  0  0  0
    7.6100   -2.2665    0.0000 H   0  0  0  0  0  0  0  0  0  0  0  0
    8.4037   -2.0785    0.0000 H   0  0  0  0  0  0  0  0  0  0  0  0
    9.2805   -2.0785    0.0000 H   0  0  0  0  0  0  0  0  0  0  0  0
    9.2805   -1.2017    0.0000 H   0  0  0  0  0  0  0  0  0  0  0  0
    6.0981   -0.4890    0.0000 H   0  0  0  0  0  0  0  0  0  0  0  0
    6.3250   -1.3360    0.0000 H   0  0  0  0  0  0  0  0  0  0  0  0
    7.1720   -1.1090    0.0000 H   0  0  0  0  0  0  0  0  0  0  0  0
    3.7105    1.8591    0.0000 H   0  0  0  0  0  0  0  0  0  0  0  0
    5.4437   -0.4784    0.0000 H   0  0  0  0  0  0  0  0  0  0  0  0
    7.8675    0.9161    0.0000 H   0  0  0  0  0  0  0  0  0  0  0  0
    4.5083    0.8044    0.0000 H   0  0  0  0  0  0  0  0  0  0  0  0
    6.6116   -0.0766    0.0000 H   0  0  0  0  0  0  0  0  0  0  0  0
    6.2131    0.6137    0.0000 H   0  0  0  0  0  0  0  0  0  0  0  0
    2.0000    0.3411    0.0000 H   0  0  0  0  0  0  0  0  0  0  0  0
    8.4450    4.0680    0.0000 H   0  0  0  0  0  0  0  0  0  0  0  0
    2.0000    1.7211    0.0000 H   0  0  0  0  0  0  0  0  0  0  0  0
    6.9450   -4.0680    0.0000 H   0  0  0  0  0  0  0  0  0  0  0  0
    6.1087   -1.5795    0.0000 H   0  0  0  0  0  0  0  0  0  0  0  0
  1 19  1  0  0  0  0
  1 20  1  0  0  0  0
  2 23  1  0  0  0  0
  2 24  1  0  0  0  0
  3 26  1  0  0  0  0
  3 28  1  0  0  0  0
  4 23  1  0  0  0  0
  4 30  1  0  0  0  0
  5 27  1  0  0  0  0
  5 32  1  0  0  0  0
  6 17  1  0  0  0  0
  6 74  1  0  0  0  0
  7 32  1  0  0  0  0
  7 34  1  0  0  0  0
  8 21  1  0  0  0  0
  8 75  1  0  0  0  0
  9 22  1  0  0  0  0
  9 76  1  0  0  0  0
 10 25  1  0  0  0  0
 10 77  1  0  0  0  0
 11 31  1  0  0  0  0
 11 80  1  0  0  0  0
 12 33  1  0  0  0  0
 12 81  1  0  0  0  0
 13 35  1  0  0  0  0
 13 82  1  0  0  0  0
 14 37  1  0  0  0  0
 14 83  1  0  0  0  0
 15 40  1  0  0  0  0
 15 84  1  0  0  0  0
 16 17  1  0  0  0  0
 16 19  1  0  0  0  0
 16 27  1  0  0  0  0
 16 29  1  0  0  0  0
 17 21  1  0  0  0  0
 17 41  1  0  0  0  0
 18 22  1  0  0  0  0
 18 24  1  0  0  0  0
 18 26  1  0  0  0  0
 18 42  1  0  0  0  0
 19 33  1  0  0  0  0
 19 43  1  0  0  0  0
 20 21  1  0  0  0  0
 20 28  1  0  0  0  0
 20 44  1  0  0  0  0
 21 45  1  0  0  0  0
 22 25  1  0  0  0  0
 22 46  1  0  0  0  0
 23 25  1  0  0  0  0
 23 36  1  0  0  0  0
 24 37  1  0  0  0  0
 24 47  1  0  0  0  0
 25 48  1  0  0  0  0
 26 38  1  0  0  0  0
 26 49  1  0  0  0  0
 27 50  1  0  0  0  0
 27 51  1  0  0  0  0
 28 39  1  0  0  0  0
 28 52  1  0  0  0  0
 29 54  1  0  0  0  0
 29 55  1  0  0  0  0
 29 56  1  0  0  0  0
 30 31  1  0  0  0  0
 30 34  1  0  0  0  0
 30 53  1  0  0  0  0
 31 35  1  0  0  0  0
 31 57  1  0  0  0  0
 32 35  1  0  0  0  0
 32 58  1  0  0  0  0
 33 60  1  0  0  0  0
 33 61  1  0  0  0  0
 34 40  1  0  0  0  0
 34 59  1  0  0  0  0
 35 62  1  0  0  0  0
 36 63  1  0  0  0  0
 36 64  1  0  0  0  0
 36 65  1  0  0  0  0
 37 66  1  0  0  0  0
 37 67  1  0  0  0  0
 38 68  1  0  0  0  0
 38 69  1  0  0  0  0
 38 70  1  0  0  0  0
 39 71  1  0  0  0  0
 39 72  1  0  0  0  0
 39 73  1  0  0  0  0
 40 78  1  0  0  0  0
 40 79  1  0  0  0  0
M  END
> <PUBCHEM_COMPOUND_CID>
60070705

> <PUBCHEM_COMPOUND_CANONICALIZED>
1

> <PUBCHEM_CACTVS_COMPLEXITY>
851

> <PUBCHEM_CACTVS_HBOND_ACCEPTOR>
15

> <PUBCHEM_CACTVS_HBOND_DONOR>
9

> <PUBCHEM_CACTVS_ROTATABLE_BOND>
3

> <PUBCHEM_CACTVS_SUBSKEYS>
AAADcfB4PAAAAAAAAAAAAAAAAAAAAAAAAAAkSJAAAAAAAAAAAAAAGgAACAAADxSwgAMCCAAABgAAAAAAAAAAAAAAAAAAAAAAAAAREAIAAAAiQAAFAAAHAAHA4PwPAAAAAAAAAAAAAAAAAAAAAAAAAAAAAA==

> <PUBCHEM_IUPAC_OPENEYE_NAME>
4,10,17-tris(hydroxymethyl)-1,9,13,15-tetramethyl-2,5,7,11,14,18-hexaoxatetracyclo[14.2.2.23,6.29,12]tetracosane-19,20,21,22,23,24-hexol

> <PUBCHEM_IUPAC_CAS_NAME>
4,10,17-tris(hydroxymethyl)-1,9,13,15-tetramethyl-2,5,7,11,14,18-hexaoxatetracyclo[14.2.2.23,6.29,12]tetracosane-19,20,21,22,23,24-hexol

> <PUBCHEM_IUPAC_NAME_MARKUP>
4,10,17-tris(hydroxymethyl)-1,9,13,15-tetramethyl-2,5,7,11,14,18-hexaoxatetracyclo[14.2.2.2<SUP>3,6</SUP>.2<SUP>9,12</SUP>]tetracosane-19,20,21,22,23,24-hexol

> <PUBCHEM_IUPAC_NAME>
4,10,17-tris(hydroxymethyl)-1,9,13,15-tetramethyl-2,5,7,11,14,18-hexaoxatetracyclo[14.2.2.23,6.29,12]tetracosane-19,20,21,22,23,24-hexol

> <PUBCHEM_IUPAC_SYSTEMATIC_NAME>
4,10,17-tris(hydroxymethyl)-1,9,13,15-tetramethyl-2,5,7,11,14,18-hexaoxatetracyclo[14.2.2.23,6.29,12]tetracosane-19,20,21,22,23,24-hexol

> <PUBCHEM_IUPAC_TRADITIONAL_NAME>
1,9,13,15-tetramethyl-4,10,17-trimethylol-2,5,7,11,14,18-hexaoxatetracyclo[14.2.2.23,6.29,12]tetracosane-19,20,21,22,23,24-hexol

> <PUBCHEM_IUPAC_INCHI>
InChI=1S/C25H44O15/c1-9-14-11(5-26)39-25(4,22(34)15(14)29)40-20-12(6-27)37-23(17(31)16(20)30)35-8-24(3)13(7-28)38-19(10(2)36-9)18(32)21(24)33/h9-23,26-34H,5-8H2,1-4H3

> <PUBCHEM_IUPAC_INCHIKEY>
FLHSPVNMYJRFIM-UHFFFAOYSA-N

> <PUBCHEM_XLOGP3_AA>
-4.7

> <PUBCHEM_EXACT_MASS>
584.26802069

> <PUBCHEM_MOLECULAR_FORMULA>
C25H44O15

> <PUBCHEM_MOLECULAR_WEIGHT>
584.6

> <PUBCHEM_OPENEYE_CAN_SMILES>
CC1C2C(OC(C(C2O)O)(OC3C(OC(C(C3O)O)OCC4(C(OC(C(O1)C)C(C4O)O)CO)C)CO)C)CO

> <PUBCHEM_OPENEYE_ISO_SMILES>
CC1C2C(OC(C(C2O)O)(OC3C(OC(C(C3O)O)OCC4(C(OC(C(O1)C)C(C4O)O)CO)C)CO)C)CO

> <PUBCHEM_CACTVS_TPSA>
237

> <PUBCHEM_MONOISOTOPIC_WEIGHT>
584.26802069

> <PUBCHEM_TOTAL_CHARGE>
0

> <PUBCHEM_HEAVY_ATOM_COUNT>
40

> <PUBCHEM_ATOM_DEF_STEREO_COUNT>
0

> <PUBCHEM_ATOM_UDEF_STEREO_COUNT>
17

> <PUBCHEM_BOND_DEF_STEREO_COUNT>
0

> <PUBCHEM_BOND_UDEF_STEREO_COUNT>
0

> <PUBCHEM_ISOTOPIC_ATOM_COUNT>
0

> <PUBCHEM_COMPONENT_COUNT>
1

> <PUBCHEM_CACTVS_TAUTO_COUNT>
-1

> <PUBCHEM_COORDINATE_TYPE>
1
5
255

> <PUBCHEM_BONDANNOTATIONS>
20  1  3
25  10  3
31  11  3
35  13  3
16  29  3
18  26  3
19  33  3
23  36  3
24  37  3
26  38  3
28  39  3
34  40  3
30  4  3
17  6  3
32  7  3
21  8  3
22  9  3

$$$$
