 
  -OEChem-10192103562D

 37 36  0     1  0  0  0  0  0999 V2000
   10.3312    0.0950    0.0000 O   0  0  0  0  0  0  0  0  0  0  0  0
   12.0632    1.0950    0.0000 O   0  0  0  0  0  0  0  0  0  0  0  0
    9.4651   -1.4050    0.0000 O   0  0  0  0  0  0  0  0  0  0  0  0
   13.7953    0.0950    0.0000 O   0  0  0  0  0  0  0  0  0  0  0  0
    2.5369   -0.4050    0.0000 O   0  0  0  0  0  0  0  0  0  0  0  0
    3.4030    1.0950    0.0000 O   0  0  0  0  0  0  0  0  0  0  0  0
    6.8671    0.0950    0.0000 C   0  0  0  0  0  0  0  0  0  0  0  0
    6.0010   -0.4050    0.0000 C   0  0  0  0  0  0  0  0  0  0  0  0
    7.7331   -0.4050    0.0000 C   0  0  0  0  0  0  0  0  0  0  0  0
    5.1350    0.0950    0.0000 C   0  0  0  0  0  0  0  0  0  0  0  0
    8.5991    0.0950    0.0000 C   0  0  0  0  0  0  0  0  0  0  0  0
    4.2690   -0.4050    0.0000 C   0  0  0  0  0  0  0  0  0  0  0  0
    9.4651   -0.4050    0.0000 C   0  0  0  0  0  0  0  0  0  0  0  0
   12.0632    0.0950    0.0000 C   0  0  3  0  0  0  0  0  0  0  0  0
   11.1972   -0.4050    0.0000 C   0  0  0  0  0  0  0  0  0  0  0  0
    3.4030    0.0950    0.0000 C   0  0  0  0  0  0  0  0  0  0  0  0
   12.9292   -0.4050    0.0000 C   0  0  0  0  0  0  0  0  0  0  0  0
    7.2656    0.5699    0.0000 H   0  0  0  0  0  0  0  0  0  0  0  0
    6.4685    0.5699    0.0000 H   0  0  0  0  0  0  0  0  0  0  0  0
    5.6025   -0.8799    0.0000 H   0  0  0  0  0  0  0  0  0  0  0  0
    6.3996   -0.8799    0.0000 H   0  0  0  0  0  0  0  0  0  0  0  0
    7.3346   -0.8799    0.0000 H   0  0  0  0  0  0  0  0  0  0  0  0
    8.1316   -0.8799    0.0000 H   0  0  0  0  0  0  0  0  0  0  0  0
    5.5335    0.5699    0.0000 H   0  0  0  0  0  0  0  0  0  0  0  0
    4.7365    0.5699    0.0000 H   0  0  0  0  0  0  0  0  0  0  0  0
    8.9976    0.5699    0.0000 H   0  0  0  0  0  0  0  0  0  0  0  0
    8.2006    0.5699    0.0000 H   0  0  0  0  0  0  0  0  0  0  0  0
    3.8705   -0.8799    0.0000 H   0  0  0  0  0  0  0  0  0  0  0  0
    4.6675   -0.8799    0.0000 H   0  0  0  0  0  0  0  0  0  0  0  0
   12.6002    0.4050    0.0000 H   0  0  0  0  0  0  0  0  0  0  0  0
   10.7987   -0.8799    0.0000 H   0  0  0  0  0  0  0  0  0  0  0  0
   11.5957   -0.8799    0.0000 H   0  0  0  0  0  0  0  0  0  0  0  0
   12.5307   -0.8799    0.0000 H   0  0  0  0  0  0  0  0  0  0  0  0
   13.3278   -0.8799    0.0000 H   0  0  0  0  0  0  0  0  0  0  0  0
   12.6002    1.4050    0.0000 H   0  0  0  0  0  0  0  0  0  0  0  0
   14.3322   -0.2150    0.0000 H   0  0  0  0  0  0  0  0  0  0  0  0
    2.0000   -0.0950    0.0000 H   0  0  0  0  0  0  0  0  0  0  0  0
  1 13  1  0  0  0  0
  1 15  1  0  0  0  0
  2 14  1  0  0  0  0
  2 35  1  0  0  0  0
  3 13  2  0  0  0  0
  4 17  1  0  0  0  0
  4 36  1  0  0  0  0
  5 16  1  0  0  0  0
  5 37  1  0  0  0  0
  6 16  2  0  0  0  0
  7  8  1  0  0  0  0
  7  9  1  0  0  0  0
  7 18  1  0  0  0  0
  7 19  1  0  0  0  0
  8 10  1  0  0  0  0
  8 20  1  0  0  0  0
  8 21  1  0  0  0  0
  9 11  1  0  0  0  0
  9 22  1  0  0  0  0
  9 23  1  0  0  0  0
 10 12  1  0  0  0  0
 10 24  1  0  0  0  0
 10 25  1  0  0  0  0
 11 13  1  0  0  0  0
 11 26  1  0  0  0  0
 11 27  1  0  0  0  0
 12 16  1  0  0  0  0
 12 28  1  0  0  0  0
 12 29  1  0  0  0  0
 14 15  1  0  0  0  0
 14 17  1  0  0  0  0
 14 30  1  0  0  0  0
 15 31  1  0  0  0  0
 15 32  1  0  0  0  0
 17 33  1  0  0  0  0
 17 34  1  0  0  0  0
M  END
> <PUBCHEM_COMPOUND_CID>
51136413

> <PUBCHEM_COMPOUND_CANONICALIZED>
1

> <PUBCHEM_CACTVS_COMPLEXITY>
228

> <PUBCHEM_CACTVS_HBOND_ACCEPTOR>
6

> <PUBCHEM_CACTVS_HBOND_DONOR>
3

> <PUBCHEM_CACTVS_ROTATABLE_BOND>
11

> <PUBCHEM_CACTVS_SUBSKEYS>
AAADceBwOAAAAAAAAAAAAAAAAAAAAAAAAAAAAAAAAAAAAAAAAAAAGgAACAAACBSggAIACAAABgAIAACQCAAAAAAAAAAAAAEAAAABEBIAAAACQAAFAAADAAGIyKCAAAAAAAAAAAAAAAAAAAAAAAAAAAAAAA==

> <PUBCHEM_IUPAC_OPENEYE_NAME>
8-(2,3-dihydroxypropoxy)-8-oxo-octanoic acid

> <PUBCHEM_IUPAC_CAS_NAME>
8-(2,3-dihydroxypropoxy)-8-oxooctanoic acid

> <PUBCHEM_IUPAC_NAME_MARKUP>
8-(2,3-dihydroxypropoxy)-8-oxooctanoic acid

> <PUBCHEM_IUPAC_NAME>
8-(2,3-dihydroxypropoxy)-8-oxooctanoic acid

> <PUBCHEM_IUPAC_SYSTEMATIC_NAME>
8-[2,3-bis(oxidanyl)propoxy]-8-oxidanylidene-octanoic acid

> <PUBCHEM_IUPAC_TRADITIONAL_NAME>
8-glyceryloxy-8-keto-caprylic acid

> <PUBCHEM_IUPAC_INCHI>
InChI=1S/C11H20O6/c12-7-9(13)8-17-11(16)6-4-2-1-3-5-10(14)15/h9,12-13H,1-8H2,(H,14,15)

> <PUBCHEM_IUPAC_INCHIKEY>
LZTCLRFNOWIKKM-UHFFFAOYSA-N

> <PUBCHEM_XLOGP3>
0.2

> <PUBCHEM_EXACT_MASS>
248.12598835

> <PUBCHEM_MOLECULAR_FORMULA>
C11H20O6

> <PUBCHEM_MOLECULAR_WEIGHT>
248.27

> <PUBCHEM_OPENEYE_CAN_SMILES>
C(CCCC(=O)OCC(CO)O)CCC(=O)O

> <PUBCHEM_OPENEYE_ISO_SMILES>
C(CCCC(=O)OCC(CO)O)CCC(=O)O

> <PUBCHEM_CACTVS_TPSA>
104

> <PUBCHEM_MONOISOTOPIC_WEIGHT>
248.12598835

> <PUBCHEM_TOTAL_CHARGE>
0

> <PUBCHEM_HEAVY_ATOM_COUNT>
17

> <PUBCHEM_ATOM_DEF_STEREO_COUNT>
0

> <PUBCHEM_ATOM_UDEF_STEREO_COUNT>
1

> <PUBCHEM_BOND_DEF_STEREO_COUNT>
0

> <PUBCHEM_BOND_UDEF_STEREO_COUNT>
0

> <PUBCHEM_ISOTOPIC_ATOM_COUNT>
0

> <PUBCHEM_COMPONENT_COUNT>
1

> <PUBCHEM_CACTVS_TAUTO_COUNT>
-1

> <PUBCHEM_COORDINATE_TYPE>
1
5
255

> <PUBCHEM_BONDANNOTATIONS>
14  2  3

$$$$
