 
  -OEChem-10192104192D

 87 88  0     1  0  0  0  0  0999 V2000
   10.6504    1.6022    0.0000 S   0  0  0  0  0  0  0  0  0  0  0  0
    9.4915    2.8894    0.0000 S   0  0  0  0  0  0  0  0  0  0  0  0
    7.1962   -0.0367    0.0000 O   0  0  0  0  0  0  0  0  0  0  0  0
    7.6962    2.5022    0.0000 O   0  0  0  0  0  0  0  0  0  0  0  0
    5.4641   -0.0367    0.0000 O   0  0  0  0  0  0  0  0  0  0  0  0
    5.4361    1.2421    0.0000 O   0  0  0  0  0  0  0  0  0  0  0  0
    7.1962   -2.0367    0.0000 O   0  0  0  0  0  0  0  0  0  0  0  0
    5.4641   -3.0367    0.0000 O   0  0  0  0  0  0  0  0  0  0  0  0
    3.7320   -2.0367    0.0000 O   0  0  0  0  0  0  0  0  0  0  0  0
    9.1641    0.2640    0.0000 O   0  0  0  0  0  0  0  0  0  0  0  0
    3.7320    0.9633    0.0000 O   0  0  0  0  0  0  0  0  0  0  0  0
    3.7419    1.6022    0.0000 O   0  0  0  0  0  0  0  0  0  0  0  0
    6.3301   -3.5367    0.0000 O   0  0  0  0  0  0  0  0  0  0  0  0
    3.7320   -3.0367    0.0000 O   0  0  0  0  0  0  0  0  0  0  0  0
    2.8660   -0.5367    0.0000 O   0  0  0  0  0  0  0  0  0  0  0  0
   10.8583    0.6241    0.0000 O   0  0  0  0  0  0  0  0  0  0  0  0
    2.0000    0.9633    0.0000 O   0  0  0  0  0  0  0  0  0  0  0  0
    7.1962    0.9633    0.0000 C   0  0  1  0  0  0  0  0  0  0  0  0
    8.0052    1.5511    0.0000 C   0  0  2  0  0  0  0  0  0  0  0  0
    6.3871    1.5511    0.0000 C   0  0  2  0  0  0  0  0  0  0  0  0
    6.3301   -0.5367    0.0000 C   0  0  2  0  0  0  0  0  0  0  0  0
    6.3301   -1.5367    0.0000 C   0  0  1  0  0  0  0  0  0  0  0  0
    5.4641   -2.0367    0.0000 C   0  0  2  0  0  0  0  0  0  0  0  0
    4.5981   -1.5367    0.0000 C   0  0  2  0  0  0  0  0  0  0  0  0
    4.5981   -0.5367    0.0000 C   0  0  1  0  0  0  0  0  0  0  0  0
    8.9562    1.2421    0.0000 C   0  0  1  0  0  0  0  0  0  0  0  0
    6.6962    2.5022    0.0000 C   0  0  0  0  0  0  0  0  0  0  0  0
    9.6994    1.9112    0.0000 C   0  0  0  0  0  0  0  0  0  0  0  0
    3.7320   -0.0367    0.0000 C   0  0  0  0  0  0  0  0  0  0  0  0
    4.6929    1.9112    0.0000 C   0  0  0  0  0  0  0  0  0  0  0  0
    7.1962   -3.0367    0.0000 C   0  0  0  0  0  0  0  0  0  0  0  0
    4.5981   -3.5367    0.0000 C   0  0  0  0  0  0  0  0  0  0  0  0
    2.8660   -1.5367    0.0000 C   0  0  0  0  0  0  0  0  0  0  0  0
   10.1152   -0.0451    0.0000 C   0  0  0  0  0  0  0  0  0  0  0  0
   11.3936    2.2714    0.0000 C   0  0  0  0  0  0  0  0  0  0  0  0
   10.2346    3.5585    0.0000 C   0  0  0  0  0  0  0  0  0  0  0  0
    4.9008    2.8894    0.0000 C   0  0  0  0  0  0  0  0  0  0  0  0
    8.0622   -3.5367    0.0000 C   0  0  0  0  0  0  0  0  0  0  0  0
    4.5981   -4.5367    0.0000 C   0  0  0  0  0  0  0  0  0  0  0  0
    2.8660    1.4633    0.0000 C   0  0  0  0  0  0  0  0  0  0  0  0
    2.0000   -2.0367    0.0000 C   0  0  0  0  0  0  0  0  0  0  0  0
   10.3231   -1.0232    0.0000 C   0  0  0  0  0  0  0  0  0  0  0  0
   12.3446    1.9623    0.0000 C   0  0  0  0  0  0  0  0  0  0  0  0
   10.0267    4.5367    0.0000 C   0  0  0  0  0  0  0  0  0  0  0  0
    2.8660    2.4633    0.0000 C   0  0  0  0  0  0  0  0  0  0  0  0
    7.7486    0.6819    0.0000 H   0  0  0  0  0  0  0  0  0  0  0  0
    8.6062    2.1522    0.0000 H   0  0  0  0  0  0  0  0  0  0  0  0
    5.9487    1.9895    0.0000 H   0  0  0  0  0  0  0  0  0  0  0  0
    6.3301    0.0833    0.0000 H   0  0  0  0  0  0  0  0  0  0  0  0
    6.3301   -2.1567    0.0000 H   0  0  0  0  0  0  0  0  0  0  0  0
    4.9272   -2.3467    0.0000 H   0  0  0  0  0  0  0  0  0  0  0  0
    4.5981   -2.1567    0.0000 H   0  0  0  0  0  0  0  0  0  0  0  0
    4.5981    0.0833    0.0000 H   0  0  0  0  0  0  0  0  0  0  0  0
    9.5459    1.0505    0.0000 H   0  0  0  0  0  0  0  0  0  0  0  0
    6.7610    3.1188    0.0000 H   0  0  0  0  0  0  0  0  0  0  0  0
    6.0897    2.6311    0.0000 H   0  0  0  0  0  0  0  0  0  0  0  0
    9.1097    2.1028    0.0000 H   0  0  0  0  0  0  0  0  0  0  0  0
    3.1215    0.0710    0.0000 H   0  0  0  0  0  0  0  0  0  0  0  0
    3.5200   -0.6193    0.0000 H   0  0  0  0  0  0  0  0  0  0  0  0
   11.6846    2.8188    0.0000 H   0  0  0  0  0  0  0  0  0  0  0  0
   10.9050    2.6531    0.0000 H   0  0  0  0  0  0  0  0  0  0  0  0
   10.5632    3.0327    0.0000 H   0  0  0  0  0  0  0  0  0  0  0  0
   10.8095    3.7908    0.0000 H   0  0  0  0  0  0  0  0  0  0  0  0
    5.5073    2.7605    0.0000 H   0  0  0  0  0  0  0  0  0  0  0  0
    5.0298    3.4958    0.0000 H   0  0  0  0  0  0  0  0  0  0  0  0
    4.2944    3.0183    0.0000 H   0  0  0  0  0  0  0  0  0  0  0  0
    7.7522   -4.0736    0.0000 H   0  0  0  0  0  0  0  0  0  0  0  0
    8.5991   -3.8467    0.0000 H   0  0  0  0  0  0  0  0  0  0  0  0
    8.3722   -2.9997    0.0000 H   0  0  0  0  0  0  0  0  0  0  0  0
    3.9781   -4.5367    0.0000 H   0  0  0  0  0  0  0  0  0  0  0  0
    4.5981   -5.1567    0.0000 H   0  0  0  0  0  0  0  0  0  0  0  0
    5.2181   -4.5367    0.0000 H   0  0  0  0  0  0  0  0  0  0  0  0
    1.6900   -1.4997    0.0000 H   0  0  0  0  0  0  0  0  0  0  0  0
    1.4631   -2.3467    0.0000 H   0  0  0  0  0  0  0  0  0  0  0  0
    2.3100   -2.5736    0.0000 H   0  0  0  0  0  0  0  0  0  0  0  0
    9.7166   -1.1521    0.0000 H   0  0  0  0  0  0  0  0  0  0  0  0
   10.4520   -1.6297    0.0000 H   0  0  0  0  0  0  0  0  0  0  0  0
   10.9296   -0.8943    0.0000 H   0  0  0  0  0  0  0  0  0  0  0  0
   12.1530    1.3727    0.0000 H   0  0  0  0  0  0  0  0  0  0  0  0
   12.9343    1.7707    0.0000 H   0  0  0  0  0  0  0  0  0  0  0  0
   12.5362    2.5520    0.0000 H   0  0  0  0  0  0  0  0  0  0  0  0
   10.6331    4.6656    0.0000 H   0  0  0  0  0  0  0  0  0  0  0  0
    9.8978    5.1431    0.0000 H   0  0  0  0  0  0  0  0  0  0  0  0
    9.4202    4.4078    0.0000 H   0  0  0  0  0  0  0  0  0  0  0  0
    3.4860    2.4633    0.0000 H   0  0  0  0  0  0  0  0  0  0  0  0
    2.8660    3.0833    0.0000 H   0  0  0  0  0  0  0  0  0  0  0  0
    2.2460    2.4633    0.0000 H   0  0  0  0  0  0  0  0  0  0  0  0
  1 28  1  0  0  0  0
  1 35  1  0  0  0  0
  2 28  1  0  0  0  0
  2 36  1  0  0  0  0
 18  3  1  6  0  0  0
 21  3  1  1  0  0  0
  4 19  1  0  0  0  0
  4 27  1  0  0  0  0
  5 21  1  0  0  0  0
  5 25  1  0  0  0  0
 20  6  1  1  0  0  0
  6 30  1  0  0  0  0
 22  7  1  6  0  0  0
  7 31  1  0  0  0  0
 23  8  1  1  0  0  0
  8 32  1  0  0  0  0
 24  9  1  1  0  0  0
  9 33  1  0  0  0  0
 26 10  1  1  0  0  0
 10 34  1  0  0  0  0
 11 29  1  0  0  0  0
 11 40  1  0  0  0  0
 12 30  2  0  0  0  0
 13 31  2  0  0  0  0
 14 32  2  0  0  0  0
 15 33  2  0  0  0  0
 16 34  2  0  0  0  0
 17 40  2  0  0  0  0
 18 19  1  0  0  0  0
 18 20  1  0  0  0  0
 18 46  1  0  0  0  0
 19 26  1  0  0  0  0
 19 47  1  6  0  0  0
 20 27  1  0  0  0  0
 20 48  1  0  0  0  0
 21 22  1  0  0  0  0
 21 49  1  0  0  0  0
 22 23  1  0  0  0  0
 22 50  1  0  0  0  0
 23 24  1  0  0  0  0
 23 51  1  0  0  0  0
 24 25  1  0  0  0  0
 24 52  1  0  0  0  0
 25 29  1  1  0  0  0
 25 53  1  0  0  0  0
 26 28  1  0  0  0  0
 26 54  1  0  0  0  0
 27 55  1  0  0  0  0
 27 56  1  0  0  0  0
 28 57  1  0  0  0  0
 29 58  1  0  0  0  0
 29 59  1  0  0  0  0
 30 37  1  0  0  0  0
 31 38  1  0  0  0  0
 32 39  1  0  0  0  0
 33 41  1  0  0  0  0
 34 42  1  0  0  0  0
 35 43  1  0  0  0  0
 35 60  1  0  0  0  0
 35 61  1  0  0  0  0
 36 44  1  0  0  0  0
 36 62  1  0  0  0  0
 36 63  1  0  0  0  0
 37 64  1  0  0  0  0
 37 65  1  0  0  0  0
 37 66  1  0  0  0  0
 38 67  1  0  0  0  0
 38 68  1  0  0  0  0
 38 69  1  0  0  0  0
 39 70  1  0  0  0  0
 39 71  1  0  0  0  0
 39 72  1  0  0  0  0
 40 45  1  0  0  0  0
 41 73  1  0  0  0  0
 41 74  1  0  0  0  0
 41 75  1  0  0  0  0
 42 76  1  0  0  0  0
 42 77  1  0  0  0  0
 42 78  1  0  0  0  0
 43 79  1  0  0  0  0
 43 80  1  0  0  0  0
 43 81  1  0  0  0  0
 44 82  1  0  0  0  0
 44 83  1  0  0  0  0
 44 84  1  0  0  0  0
 45 85  1  0  0  0  0
 45 86  1  0  0  0  0
 45 87  1  0  0  0  0
M  END
> <PUBCHEM_COMPOUND_CID>
102490778

> <PUBCHEM_COMPOUND_CANONICALIZED>
1

> <PUBCHEM_CACTVS_COMPLEXITY>
1050

> <PUBCHEM_CACTVS_HBOND_ACCEPTOR>
17

> <PUBCHEM_CACTVS_HBOND_DONOR>
0

> <PUBCHEM_CACTVS_ROTATABLE_BOND>
21

> <PUBCHEM_CACTVS_SUBSKEYS>
AAADcfB4PABgAAAAAAAAAAAAAAAAASAAAAAkAAAAAAAAAAAAAAAAGgQAAAAACBS0wAOCCAAABAgIAACQCAAAAQAAABAAAAAAAAARAAIgAAAiAAAFAAAmAAHAYAwAAAAAAAAAAAAAAAAAAAAAAAAAAAAAAA==

> <PUBCHEM_IUPAC_OPENEYE_NAME>
[(2R,3S,4S,5R,6S)-3,4,5-triacetoxy-6-[(2R,3R,4S)-4-acetoxy-2-[(1S)-1-acetoxy-2,2-bis(ethylsulfanyl)ethyl]tetrahydrofuran-3-yl]oxy-tetrahydropyran-2-yl]methyl acetate

> <PUBCHEM_IUPAC_CAS_NAME>
acetic acid [(2R,3S,4S,5R,6S)-3,4,5-triacetyloxy-6-[[(2R,3R,4S)-4-acetyloxy-2-[(1S)-1-acetyloxy-2,2-bis(ethylthio)ethyl]-3-oxolanyl]oxy]-2-oxanyl]methyl ester

> <PUBCHEM_IUPAC_NAME_MARKUP>
[(2<I>R</I>,3<I>S</I>,4<I>S</I>,5<I>R</I>,6<I>S</I>)-3,4,5-triacetyloxy-6-[(2<I>R</I>,3<I>R</I>,4<I>S</I>)-4-acetyloxy-2-[(1<I>S</I>)-1-acetyloxy-2,2-bis(ethylsulfanyl)ethyl]oxolan-3-yl]oxyoxan-2-yl]methyl acetate

> <PUBCHEM_IUPAC_NAME>
[(2R,3S,4S,5R,6S)-3,4,5-triacetyloxy-6-[(2R,3R,4S)-4-acetyloxy-2-[(1S)-1-acetyloxy-2,2-bis(ethylsulfanyl)ethyl]oxolan-3-yl]oxyoxan-2-yl]methyl acetate

> <PUBCHEM_IUPAC_SYSTEMATIC_NAME>
[(2R,3S,4S,5R,6S)-3,4,5-triacetyloxy-6-[(2R,3R,4S)-4-acetyloxy-2-[(1S)-1-acetyloxy-2,2-bis(ethylsulfanyl)ethyl]oxolan-3-yl]oxy-oxan-2-yl]methyl ethanoate

> <PUBCHEM_IUPAC_TRADITIONAL_NAME>
acetic acid [(2R,3S,4S,5R,6S)-3,4,5-triacetoxy-6-[(2R,3R,4S)-4-acetoxy-2-[(1S)-1-acetoxy-2,2-bis(ethylthio)ethyl]tetrahydrofuran-3-yl]oxy-tetrahydropyran-2-yl]methyl ester

> <PUBCHEM_IUPAC_INCHI>
InChI=1S/C28H42O15S2/c1-9-44-28(45-10-2)26(41-18(8)34)23-21(19(12-36-23)37-14(4)30)43-27-25(40-17(7)33)24(39-16(6)32)22(38-15(5)31)20(42-27)11-35-13(3)29/h19-28H,9-12H2,1-8H3/t19-,20+,21+,22-,23+,24-,25+,26-,27-/m0/s1

> <PUBCHEM_IUPAC_INCHIKEY>
YZCDRVSQGIKFSC-RBSPYFFCSA-N

> <PUBCHEM_XLOGP3_AA>
1.6

> <PUBCHEM_EXACT_MASS>
682.19651298

> <PUBCHEM_MOLECULAR_FORMULA>
C28H42O15S2

> <PUBCHEM_MOLECULAR_WEIGHT>
682.8

> <PUBCHEM_OPENEYE_CAN_SMILES>
CCSC(C(C1C(C(CO1)OC(=O)C)OC2C(C(C(C(O2)COC(=O)C)OC(=O)C)OC(=O)C)OC(=O)C)OC(=O)C)SCC

> <PUBCHEM_OPENEYE_ISO_SMILES>
CCSC([C@H]([C@H]1[C@@H]([C@H](CO1)OC(=O)C)O[C@H]2[C@@H]([C@H]([C@H]([C@H](O2)COC(=O)C)OC(=O)C)OC(=O)C)OC(=O)C)OC(=O)C)SCC

> <PUBCHEM_CACTVS_TPSA>
236

> <PUBCHEM_MONOISOTOPIC_WEIGHT>
682.19651298

> <PUBCHEM_TOTAL_CHARGE>
0

> <PUBCHEM_HEAVY_ATOM_COUNT>
45

> <PUBCHEM_ATOM_DEF_STEREO_COUNT>
9

> <PUBCHEM_ATOM_UDEF_STEREO_COUNT>
0

> <PUBCHEM_BOND_DEF_STEREO_COUNT>
0

> <PUBCHEM_BOND_UDEF_STEREO_COUNT>
0

> <PUBCHEM_ISOTOPIC_ATOM_COUNT>
0

> <PUBCHEM_COMPONENT_COUNT>
1

> <PUBCHEM_CACTVS_TAUTO_COUNT>
-1

> <PUBCHEM_COORDINATE_TYPE>
1
5
255

> <PUBCHEM_BONDANNOTATIONS>
26  10  5
19  47  6
25  29  5
18  3  6
21  3  5
20  6  5
22  7  6
23  8  5
24  9  5

$$$$
