 
  -OEChem-10192103292D

 81 84  0     1  0  0  0  0  0999 V2000
    7.7331    0.0625    0.0000 O   0  0  0  0  0  0  0  0  0  0  0  0
    6.0010   -0.9375    0.0000 O   0  0  0  0  0  0  0  0  0  0  0  0
    8.6031    1.6041    0.0000 O   0  0  0  0  0  0  0  0  0  0  0  0
   11.3378    0.2651    0.0000 O   0  0  0  0  0  0  0  0  0  0  0  0
    9.2332   -0.9177    0.0000 O   0  0  0  0  0  0  0  0  0  0  0  0
    4.2690   -0.9375    0.0000 O   0  0  0  0  0  0  0  0  0  0  0  0
   11.2804    2.0562    0.0000 O   0  0  0  0  0  0  0  0  0  0  0  0
    6.0010   -2.9375    0.0000 O   0  0  0  0  0  0  0  0  0  0  0  0
    4.2690   -3.9375    0.0000 O   0  0  0  0  0  0  0  0  0  0  0  0
    2.5369   -2.9375    0.0000 O   0  0  0  0  0  0  0  0  0  0  0  0
    8.6684    3.6276    0.0000 O   0  0  0  0  0  0  0  0  0  0  0  0
   12.2021   -3.1773    0.0000 O   0  0  0  0  0  0  0  0  0  0  0  0
   13.2140    0.4318    0.0000 O   0  0  0  0  0  0  0  0  0  0  0  0
   13.4202   -1.2879    0.0000 O   0  0  0  0  0  0  0  0  0  0  0  0
    6.0010    0.0625    0.0000 C   0  0  3  0  0  0  0  0  0  0  0  0
    6.8671    0.5625    0.0000 C   0  0  1  0  0  0  0  0  0  0  0  0
    5.1350    0.5625    0.0000 C   0  0  1  0  0  0  0  0  0  0  0  0
    6.8671    1.5625    0.0000 C   0  0  0  0  0  0  0  0  0  0  0  0
    5.1350    1.5625    0.0000 C   0  0  0  0  0  0  0  0  0  0  0  0
    9.5032    0.0451    0.0000 C   0  0  3  0  0  0  0  0  0  0  0  0
    8.5991    0.5625    0.0000 C   0  0  2  0  0  0  0  0  0  0  0  0
    6.0010    2.0625    0.0000 C   0  0  0  0  0  0  0  0  0  0  0  0
   10.3749    0.5351    0.0000 C   0  0  3  0  0  0  0  0  0  0  0  0
   10.4030    1.5763    0.0000 C   0  0  2  0  0  0  0  0  0  0  0  0
    9.5112    2.1144    0.0000 C   0  0  3  0  0  0  0  0  0  0  0  0
    5.1350   -1.4375    0.0000 C   0  0  2  0  0  0  0  0  0  0  0  0
    4.2690    0.0625    0.0000 C   0  0  0  0  0  0  0  0  0  0  0  0
    5.1350   -2.4375    0.0000 C   0  0  2  0  0  0  0  0  0  0  0  0
   11.5578   -1.5695    0.0000 C   0  0  1  0  0  0  0  0  0  0  0  0
   11.8278   -0.6066    0.0000 C   0  0  2  0  0  0  0  0  0  0  0  0
    4.2690   -2.9375    0.0000 C   0  0  3  0  0  0  0  0  0  0  0  0
   10.6860   -2.0595    0.0000 C   0  0  0  0  0  0  0  0  0  0  0  0
    9.7232   -1.7895    0.0000 C   0  0  0  0  0  0  0  0  0  0  0  0
    3.4030   -2.4375    0.0000 C   0  0  1  0  0  0  0  0  0  0  0  0
    3.4030   -1.4375    0.0000 C   0  0  3  0  0  0  0  0  0  0  0  0
    9.5266    3.1143    0.0000 C   0  0  0  0  0  0  0  0  0  0  0  0
   12.3441   -2.1874    0.0000 C   0  0  0  0  0  0  0  0  0  0  0  0
   12.8207   -0.4876    0.0000 C   0  0  0  0  0  0  0  0  0  0  0  0
    2.5369   -0.9375    0.0000 C   0  0  0  0  0  0  0  0  0  0  0  0
    6.5380   -0.2475    0.0000 H   0  0  0  0  0  0  0  0  0  0  0  0
    7.4040    0.8725    0.0000 H   0  0  0  0  0  0  0  0  0  0  0  0
    5.1350   -0.0575    0.0000 H   0  0  0  0  0  0  0  0  0  0  0  0
    7.4776    1.4548    0.0000 H   0  0  0  0  0  0  0  0  0  0  0  0
    7.0791    2.1451    0.0000 H   0  0  0  0  0  0  0  0  0  0  0  0
    4.9230    2.1451    0.0000 H   0  0  0  0  0  0  0  0  0  0  0  0
    4.5244    1.4548    0.0000 H   0  0  0  0  0  0  0  0  0  0  0  0
    8.9295   -0.1899    0.0000 H   0  0  0  0  0  0  0  0  0  0  0  0
    8.0628    0.8735    0.0000 H   0  0  0  0  0  0  0  0  0  0  0  0
   10.8740    0.9030    0.0000 H   0  0  0  0  0  0  0  0  0  0  0  0
    6.3996    2.5374    0.0000 H   0  0  0  0  0  0  0  0  0  0  0  0
    5.6025    2.5374    0.0000 H   0  0  0  0  0  0  0  0  0  0  0  0
   10.4162    2.1962    0.0000 H   0  0  0  0  0  0  0  0  0  0  0  0
    8.9785    2.4316    0.0000 H   0  0  0  0  0  0  0  0  0  0  0  0
    5.1350   -0.8175    0.0000 H   0  0  0  0  0  0  0  0  0  0  0  0
    3.9590    0.5994    0.0000 H   0  0  0  0  0  0  0  0  0  0  0  0
    3.7320   -0.2475    0.0000 H   0  0  0  0  0  0  0  0  0  0  0  0
    4.5790   -0.4745    0.0000 H   0  0  0  0  0  0  0  0  0  0  0  0
    5.1350   -3.0575    0.0000 H   0  0  0  0  0  0  0  0  0  0  0  0
   12.1472   -1.3770    0.0000 H   0  0  0  0  0  0  0  0  0  0  0  0
   12.1084   -0.0538    0.0000 H   0  0  0  0  0  0  0  0  0  0  0  0
    3.7320   -3.2475    0.0000 H   0  0  0  0  0  0  0  0  0  0  0  0
   10.3699   -2.5928    0.0000 H   0  0  0  0  0  0  0  0  0  0  0  0
   11.1194   -2.5029    0.0000 H   0  0  0  0  0  0  0  0  0  0  0  0
    9.1225   -1.9430    0.0000 H   0  0  0  0  0  0  0  0  0  0  0  0
    9.7160   -2.4094    0.0000 H   0  0  0  0  0  0  0  0  0  0  0  0
    3.4030   -3.0575    0.0000 H   0  0  0  0  0  0  0  0  0  0  0  0
    3.4030   -0.8175    0.0000 H   0  0  0  0  0  0  0  0  0  0  0  0
   10.1354    2.9973    0.0000 H   0  0  0  0  0  0  0  0  0  0  0  0
    9.7476    3.6936    0.0000 H   0  0  0  0  0  0  0  0  0  0  0  0
   11.2947    2.6760    0.0000 H   0  0  0  0  0  0  0  0  0  0  0  0
   12.9332   -2.3807    0.0000 H   0  0  0  0  0  0  0  0  0  0  0  0
   12.6367   -1.6408    0.0000 H   0  0  0  0  0  0  0  0  0  0  0  0
    2.8469   -0.4006    0.0000 H   0  0  0  0  0  0  0  0  0  0  0  0
    2.0000   -0.6275    0.0000 H   0  0  0  0  0  0  0  0  0  0  0  0
    2.2269   -1.4745    0.0000 H   0  0  0  0  0  0  0  0  0  0  0  0
    6.0010   -3.5575    0.0000 H   0  0  0  0  0  0  0  0  0  0  0  0
    3.7320   -4.2475    0.0000 H   0  0  0  0  0  0  0  0  0  0  0  0
    2.0000   -2.6275    0.0000 H   0  0  0  0  0  0  0  0  0  0  0  0
    8.6779    4.2475    0.0000 H   0  0  0  0  0  0  0  0  0  0  0  0
   12.6896   -3.5604    0.0000 H   0  0  0  0  0  0  0  0  0  0  0  0
   13.8296    0.5056    0.0000 H   0  0  0  0  0  0  0  0  0  0  0  0
 16  1  1  1  0  0  0
 21  1  1  6  0  0  0
  2 15  1  0  0  0  0
 26  2  1  1  0  0  0
  3 21  1  0  0  0  0
  3 25  1  0  0  0  0
  4 23  1  0  0  0  0
  4 30  1  0  0  0  0
  5 20  1  0  0  0  0
  5 33  1  0  0  0  0
  6 26  1  0  0  0  0
  6 35  1  0  0  0  0
 24  7  1  6  0  0  0
  7 70  1  0  0  0  0
 28  8  1  1  0  0  0
  8 76  1  0  0  0  0
  9 31  1  0  0  0  0
  9 77  1  0  0  0  0
 34 10  1  6  0  0  0
 10 78  1  0  0  0  0
 11 36  1  0  0  0  0
 11 79  1  0  0  0  0
 12 37  1  0  0  0  0
 12 80  1  0  0  0  0
 13 38  1  0  0  0  0
 13 81  1  0  0  0  0
 14 38  2  0  0  0  0
 15 16  1  0  0  0  0
 15 17  1  0  0  0  0
 15 40  1  0  0  0  0
 16 18  1  0  0  0  0
 16 41  1  0  0  0  0
 17 19  1  0  0  0  0
 17 27  1  6  0  0  0
 17 42  1  0  0  0  0
 18 22  1  0  0  0  0
 18 43  1  0  0  0  0
 18 44  1  0  0  0  0
 19 22  1  0  0  0  0
 19 45  1  0  0  0  0
 19 46  1  0  0  0  0
 20 21  1  0  0  0  0
 20 23  1  0  0  0  0
 20 47  1  0  0  0  0
 21 48  1  0  0  0  0
 22 50  1  0  0  0  0
 22 51  1  0  0  0  0
 23 24  1  0  0  0  0
 23 49  1  0  0  0  0
 24 25  1  0  0  0  0
 24 52  1  0  0  0  0
 25 36  1  0  0  0  0
 25 53  1  0  0  0  0
 26 28  1  0  0  0  0
 26 54  1  0  0  0  0
 27 55  1  0  0  0  0
 27 56  1  0  0  0  0
 27 57  1  0  0  0  0
 28 31  1  0  0  0  0
 28 58  1  0  0  0  0
 29 30  1  0  0  0  0
 29 32  1  0  0  0  0
 29 37  1  6  0  0  0
 29 59  1  0  0  0  0
 30 38  1  1  0  0  0
 30 60  1  0  0  0  0
 31 34  1  0  0  0  0
 31 61  1  0  0  0  0
 32 33  1  0  0  0  0
 32 62  1  0  0  0  0
 32 63  1  0  0  0  0
 33 64  1  0  0  0  0
 33 65  1  0  0  0  0
 34 35  1  0  0  0  0
 34 66  1  0  0  0  0
 35 39  1  0  0  0  0
 35 67  1  0  0  0  0
 36 68  1  0  0  0  0
 36 69  1  0  0  0  0
 37 71  1  0  0  0  0
 37 72  1  0  0  0  0
 39 73  1  0  0  0  0
 39 74  1  0  0  0  0
 39 75  1  0  0  0  0
M  END
> <PUBCHEM_COMPOUND_CID>
118247454

> <PUBCHEM_COMPOUND_CANONICALIZED>
1

> <PUBCHEM_CACTVS_COMPLEXITY>
801

> <PUBCHEM_CACTVS_HBOND_ACCEPTOR>
14

> <PUBCHEM_CACTVS_HBOND_DONOR>
7

> <PUBCHEM_CACTVS_ROTATABLE_BOND>
7

> <PUBCHEM_CACTVS_SUBSKEYS>
AAADcfB4PAAAAAAAAAAAAAAAAAAAAAAAAAA0SIAAAAASAAAAAAAAGgAACAAADRSwgAMCCAAABgAIAACQCAIAAAAAAAAAAAFAAAAREBIAAAQiQAAFAAAHAAHK5DwOAAAAAAAAAAAAAAIAABCAAAAAAAAAAA==

> <PUBCHEM_IUPAC_OPENEYE_NAME>
(2R,3S,7R,10S)-10-hydroxy-3,9-bis(hydroxymethyl)-7-[(1R,3R)-3-methyl-2-[(2S,3S,5S)-3,4,5-trihydroxy-6-methyl-tetrahydropyran-2-yl]oxy-cyclohexoxy]-3,4,5,6a,7,9,10,10a-octahydro-2H-pyrano[3,4-b][1,4]dioxocine-2-carboxylic acid

> <PUBCHEM_IUPAC_CAS_NAME>
(2R,3S,7R,10S)-10-hydroxy-3,9-bis(hydroxymethyl)-7-[(1R,3R)-3-methyl-2-[[(2S,3S,5S)-3,4,5-trihydroxy-6-methyl-2-oxanyl]oxy]cyclohexyl]oxy-3,4,5,6a,7,9,10,10a-octahydro-2H-pyrano[3,4-b][1,4]dioxocin-2-carboxylic acid

> <PUBCHEM_IUPAC_NAME_MARKUP>
(2<I>R</I>,3<I>S</I>,7<I>R</I>,10<I>S</I>)-10-hydroxy-3,9-bis(hydroxymethyl)-7-[(1<I>R</I>,3<I>R</I>)-3-methyl-2-[(2<I>S</I>,3<I>S</I>,5<I>S</I>)-3,4,5-trihydroxy-6-methyloxan-2-yl]oxycyclohexyl]oxy-3,4,5,6<I>a</I>,7,9,10,10<I>a</I>-octahydro-2<I>H</I>-pyrano[3,4-b][1,4]dioxocine-2-carboxylic acid

> <PUBCHEM_IUPAC_NAME>
(2R,3S,7R,10S)-10-hydroxy-3,9-bis(hydroxymethyl)-7-[(1R,3R)-3-methyl-2-[(2S,3S,5S)-3,4,5-trihydroxy-6-methyloxan-2-yl]oxycyclohexyl]oxy-3,4,5,6a,7,9,10,10a-octahydro-2H-pyrano[3,4-b][1,4]dioxocine-2-carboxylic acid

> <PUBCHEM_IUPAC_SYSTEMATIC_NAME>
(2R,3S,7R,10S)-3,9-bis(hydroxymethyl)-7-[(1R,3R)-3-methyl-2-[(2S,3S,5S)-6-methyl-3,4,5-tris(oxidanyl)oxan-2-yl]oxy-cyclohexyl]oxy-10-oxidanyl-3,4,5,6a,7,9,10,10a-octahydro-2H-pyrano[3,4-b][1,4]dioxocine-2-carboxylic acid

> <PUBCHEM_IUPAC_TRADITIONAL_NAME>
(2R,3S,7R,10S)-10-hydroxy-3,9-dimethylol-7-[(1R,3R)-3-methyl-2-[(2S,3S,5S)-3,4,5-trihydroxy-6-methyl-tetrahydropyran-2-yl]oxy-cyclohexoxy]-3,4,5,6a,7,9,10,10a-octahydro-2H-pyrano[3,4-b][1,4]dioxocin-2-carboxylic acid

> <PUBCHEM_IUPAC_INCHI>
InChI=1S/C25H42O14/c1-10-4-3-5-13(19(10)39-24-18(31)17(30)15(28)11(2)35-24)36-25-22-21(16(29)14(9-27)37-25)38-20(23(32)33)12(8-26)6-7-34-22/h10-22,24-31H,3-9H2,1-2H3,(H,32,33)/t10-,11?,12+,13-,14?,15-,16+,17?,18+,19?,20-,21?,22?,24+,25-/m1/s1

> <PUBCHEM_IUPAC_INCHIKEY>
QELRBWZFKJHAFG-YHWNTSLJSA-N

> <PUBCHEM_XLOGP3_AA>
-1.7

> <PUBCHEM_EXACT_MASS>
566.25745601

> <PUBCHEM_MOLECULAR_FORMULA>
C25H42O14

> <PUBCHEM_MOLECULAR_WEIGHT>
566.6

> <PUBCHEM_OPENEYE_CAN_SMILES>
CC1CCCC(C1OC2C(C(C(C(O2)C)O)O)O)OC3C4C(C(C(O3)CO)O)OC(C(CCO4)CO)C(=O)O

> <PUBCHEM_OPENEYE_ISO_SMILES>
C[C@@H]1CCC[C@H](C1O[C@H]2[C@H](C([C@@H](C(O2)C)O)O)O)O[C@H]3C4C([C@H](C(O3)CO)O)O[C@H]([C@@H](CCO4)CO)C(=O)O

> <PUBCHEM_CACTVS_TPSA>
214

> <PUBCHEM_MONOISOTOPIC_WEIGHT>
566.25745601

> <PUBCHEM_TOTAL_CHARGE>
0

> <PUBCHEM_HEAVY_ATOM_COUNT>
39

> <PUBCHEM_ATOM_DEF_STEREO_COUNT>
9

> <PUBCHEM_ATOM_UDEF_STEREO_COUNT>
6

> <PUBCHEM_BOND_DEF_STEREO_COUNT>
0

> <PUBCHEM_BOND_UDEF_STEREO_COUNT>
0

> <PUBCHEM_ISOTOPIC_ATOM_COUNT>
0

> <PUBCHEM_COMPONENT_COUNT>
1

> <PUBCHEM_CACTVS_TAUTO_COUNT>
-1

> <PUBCHEM_COORDINATE_TYPE>
1
5
255

> <PUBCHEM_BONDANNOTATIONS>
16  1  5
21  1  6
34  10  6
17  27  6
15  2  3
26  2  5
25  36  3
29  37  6
30  38  5
35  39  3
23  4  3
20  5  3
24  7  6
28  8  5
31  9  3

$$$$
