 
  -OEChem-10192104082D

 49 54  0     0  0  0  0  0  0999 V2000
    7.2901   -1.5674    0.0000 O   0  0  0  0  0  0  0  0  0  0  0  0
    3.7702   -2.4981    0.0000 O   0  0  0  0  0  0  0  0  0  0  0  0
    3.7981   -1.5327    0.0000 O   0  0  0  0  0  0  0  0  0  0  0  0
    7.2622   -2.5327    0.0000 O   0  0  0  0  0  0  0  0  0  0  0  0
    9.9004    3.0362    0.0000 O   0  0  0  0  0  0  0  0  0  0  0  0
    9.0602   -1.5569    0.0000 O   0  0  0  0  0  0  0  0  0  0  0  0
    2.0000   -2.5086    0.0000 O   0  0  0  0  0  0  0  0  0  0  0  0
   10.7887    4.5674    0.0000 O   0  0  0  0  0  0  0  0  0  0  0  0
    5.5301   -1.5327    0.0000 C   0  0  0  0  0  0  0  0  0  0  0  0
    6.3961   -1.0327    0.0000 C   0  0  0  0  0  0  0  0  0  0  0  0
    5.5301   -2.5327    0.0000 C   0  0  0  0  0  0  0  0  0  0  0  0
    6.3961   -0.0327    0.0000 C   0  0  0  0  0  0  0  0  0  0  0  0
    8.1962   -0.0119    0.0000 C   0  0  0  0  0  0  0  0  0  0  0  0
    4.6641   -3.0327    0.0000 C   0  0  0  0  0  0  0  0  0  0  0  0
    7.2901    0.5019    0.0000 C   0  0  0  0  0  0  0  0  0  0  0  0
    4.6641   -1.0327    0.0000 C   0  0  0  0  0  0  0  0  0  0  0  0
    9.0602    0.4914    0.0000 C   0  0  0  0  0  0  0  0  0  0  0  0
    5.5301    0.4673    0.0000 C   0  0  0  0  0  0  0  0  0  0  0  0
    4.6641   -4.0327    0.0000 C   0  0  0  0  0  0  0  0  0  0  0  0
    6.3961   -3.0327    0.0000 C   0  0  0  0  0  0  0  0  0  0  0  0
    4.6641   -0.0327    0.0000 C   0  0  0  0  0  0  0  0  0  0  0  0
    8.1962   -1.0535    0.0000 C   0  0  0  0  0  0  0  0  0  0  0  0
    9.0564    1.4914    0.0000 C   0  0  0  0  0  0  0  0  0  0  0  0
    5.5301   -4.5327    0.0000 C   0  0  0  0  0  0  0  0  0  0  0  0
    6.3961   -4.0327    0.0000 C   0  0  0  0  0  0  0  0  0  0  0  0
    9.9282   -0.0052    0.0000 C   0  0  0  0  0  0  0  0  0  0  0  0
    9.9205    1.9948    0.0000 C   0  0  0  0  0  0  0  0  0  0  0  0
   10.7884    1.4981    0.0000 C   0  0  0  0  0  0  0  0  0  0  0  0
    3.7702   -4.5674    0.0000 C   0  0  0  0  0  0  0  0  0  0  0  0
   10.7923    0.4981    0.0000 C   0  0  0  0  0  0  0  0  0  0  0  0
    2.8641   -4.0535    0.0000 C   0  0  0  0  0  0  0  0  0  0  0  0
    2.8641   -3.0119    0.0000 C   0  0  0  0  0  0  0  0  0  0  0  0
   11.6965    2.0084    0.0000 C   0  0  0  0  0  0  0  0  0  0  0  0
   11.7005    3.0501    0.0000 C   0  0  0  0  0  0  0  0  0  0  0  0
   10.7964    3.5674    0.0000 C   0  0  0  0  0  0  0  0  0  0  0  0
    7.2829    1.1219    0.0000 H   0  0  0  0  0  0  0  0  0  0  0  0
    5.5301    1.0873    0.0000 H   0  0  0  0  0  0  0  0  0  0  0  0
    4.1272    0.2773    0.0000 H   0  0  0  0  0  0  0  0  0  0  0  0
    8.5183    1.7994    0.0000 H   0  0  0  0  0  0  0  0  0  0  0  0
    5.5301   -5.1527    0.0000 H   0  0  0  0  0  0  0  0  0  0  0  0
    6.9331   -4.3427    0.0000 H   0  0  0  0  0  0  0  0  0  0  0  0
    9.9306   -0.6252    0.0000 H   0  0  0  0  0  0  0  0  0  0  0  0
    3.7773   -5.1873    0.0000 H   0  0  0  0  0  0  0  0  0  0  0  0
   11.3304    0.1902    0.0000 H   0  0  0  0  0  0  0  0  0  0  0  0
    2.3284   -4.3656    0.0000 H   0  0  0  0  0  0  0  0  0  0  0  0
   12.2310    1.6943    0.0000 H   0  0  0  0  0  0  0  0  0  0  0  0
    3.2611   -1.2227    0.0000 H   0  0  0  0  0  0  0  0  0  0  0  0
    7.7991   -2.8427    0.0000 H   0  0  0  0  0  0  0  0  0  0  0  0
   12.2374    3.3601    0.0000 H   0  0  0  0  0  0  0  0  0  0  0  0
  1 10  1  0  0  0  0
  1 22  1  0  0  0  0
  2 14  1  0  0  0  0
  2 32  1  0  0  0  0
  3 16  1  0  0  0  0
  3 47  1  0  0  0  0
  4 20  1  0  0  0  0
  4 48  1  0  0  0  0
  5 27  1  0  0  0  0
  5 35  1  0  0  0  0
  6 22  2  0  0  0  0
  7 32  2  0  0  0  0
  8 35  2  0  0  0  0
  9 10  1  0  0  0  0
  9 11  1  0  0  0  0
  9 16  2  0  0  0  0
 10 12  2  0  0  0  0
 11 14  1  0  0  0  0
 11 20  2  0  0  0  0
 12 15  1  0  0  0  0
 12 18  1  0  0  0  0
 13 15  2  0  0  0  0
 13 17  1  0  0  0  0
 13 22  1  0  0  0  0
 14 19  2  0  0  0  0
 15 36  1  0  0  0  0
 16 21  1  0  0  0  0
 17 23  2  0  0  0  0
 17 26  1  0  0  0  0
 18 21  2  0  0  0  0
 18 37  1  0  0  0  0
 19 24  1  0  0  0  0
 19 29  1  0  0  0  0
 20 25  1  0  0  0  0
 21 38  1  0  0  0  0
 23 27  1  0  0  0  0
 23 39  1  0  0  0  0
 24 25  2  0  0  0  0
 24 40  1  0  0  0  0
 25 41  1  0  0  0  0
 26 30  2  0  0  0  0
 26 42  1  0  0  0  0
 27 28  2  0  0  0  0
 28 30  1  0  0  0  0
 28 33  1  0  0  0  0
 29 31  2  0  0  0  0
 29 43  1  0  0  0  0
 30 44  1  0  0  0  0
 31 32  1  0  0  0  0
 31 45  1  0  0  0  0
 33 34  2  0  0  0  0
 33 46  1  0  0  0  0
 34 35  1  0  0  0  0
 34 49  1  0  0  0  0
M  END
> <PUBCHEM_COMPOUND_CID>
101859450

> <PUBCHEM_COMPOUND_CANONICALIZED>
1

> <PUBCHEM_CACTVS_COMPLEXITY>
997

> <PUBCHEM_CACTVS_HBOND_ACCEPTOR>
8

> <PUBCHEM_CACTVS_HBOND_DONOR>
2

> <PUBCHEM_CACTVS_ROTATABLE_BOND>
2

> <PUBCHEM_CACTVS_SUBSKEYS>
AAADccB4PAAAAAAAAAAAAAAAAAAAAAAAAAAwYMECAAAAAACBUAAAGgAACAAADASAmAAwDoAABgCIAiDSCAACCAAgIAAIiAEGCMgMJzKGNRqCeiClwBUIuYfI7PzO4AADCAAIAADAAAYQABAAAAAAAAAAAA==

> <PUBCHEM_IUPAC_OPENEYE_NAME>
7-hydroxy-8-(7-hydroxy-2-oxo-chromen-8-yl)-3-(2-oxochromen-7-yl)chromen-2-one

> <PUBCHEM_IUPAC_CAS_NAME>
7-hydroxy-8-(7-hydroxy-2-oxo-1-benzopyran-8-yl)-3-(2-oxo-1-benzopyran-7-yl)-1-benzopyran-2-one

> <PUBCHEM_IUPAC_NAME_MARKUP>
7-hydroxy-8-(7-hydroxy-2-oxochromen-8-yl)-3-(2-oxochromen-7-yl)chromen-2-one

> <PUBCHEM_IUPAC_NAME>
7-hydroxy-8-(7-hydroxy-2-oxochromen-8-yl)-3-(2-oxochromen-7-yl)chromen-2-one

> <PUBCHEM_IUPAC_SYSTEMATIC_NAME>
7-oxidanyl-3-(2-oxidanylidenechromen-7-yl)-8-(7-oxidanyl-2-oxidanylidene-chromen-8-yl)chromen-2-one

> <PUBCHEM_IUPAC_TRADITIONAL_NAME>
7-hydroxy-8-(7-hydroxy-2-keto-chromen-8-yl)-3-(2-ketochromen-7-yl)coumarin

> <PUBCHEM_IUPAC_INCHI>
InChI=1S/C27H14O8/c28-18-7-3-14-6-10-22(31)34-25(14)23(18)24-19(29)8-4-16-11-17(27(32)35-26(16)24)15-2-1-13-5-9-21(30)33-20(13)12-15/h1-12,28-29H

> <PUBCHEM_IUPAC_INCHIKEY>
MQHSMTUEFVYZIH-UHFFFAOYSA-N

> <PUBCHEM_XLOGP3_AA>
4.4

> <PUBCHEM_EXACT_MASS>
466.06886740

> <PUBCHEM_MOLECULAR_FORMULA>
C27H14O8

> <PUBCHEM_MOLECULAR_WEIGHT>
466.4

> <PUBCHEM_OPENEYE_CAN_SMILES>
C1=CC(=CC2=C1C=CC(=O)O2)C3=CC4=C(C(=C(C=C4)O)C5=C(C=CC6=C5OC(=O)C=C6)O)OC3=O

> <PUBCHEM_OPENEYE_ISO_SMILES>
C1=CC(=CC2=C1C=CC(=O)O2)C3=CC4=C(C(=C(C=C4)O)C5=C(C=CC6=C5OC(=O)C=C6)O)OC3=O

> <PUBCHEM_CACTVS_TPSA>
119

> <PUBCHEM_MONOISOTOPIC_WEIGHT>
466.06886740

> <PUBCHEM_TOTAL_CHARGE>
0

> <PUBCHEM_HEAVY_ATOM_COUNT>
35

> <PUBCHEM_ATOM_DEF_STEREO_COUNT>
0

> <PUBCHEM_ATOM_UDEF_STEREO_COUNT>
0

> <PUBCHEM_BOND_DEF_STEREO_COUNT>
0

> <PUBCHEM_BOND_UDEF_STEREO_COUNT>
0

> <PUBCHEM_ISOTOPIC_ATOM_COUNT>
0

> <PUBCHEM_COMPONENT_COUNT>
1

> <PUBCHEM_CACTVS_TAUTO_COUNT>
-1

> <PUBCHEM_COORDINATE_TYPE>
1
5
255

> <PUBCHEM_BONDANNOTATIONS>
1  10  8
1  22  8
10  12  8
11  14  8
11  20  8
12  15  8
12  18  8
13  15  8
13  22  8
14  19  8
16  21  8
17  23  8
17  26  8
18  21  8
19  24  8
19  29  8
2  14  8
2  32  8
20  25  8
23  27  8
24  25  8
26  30  8
27  28  8
28  30  8
28  33  8
29  31  8
31  32  8
33  34  8
34  35  8
5  27  8
5  35  8
9  10  8
9  16  8

$$$$
