 
  -OEChem-10192103442D

 68 70  0     1  0  0  0  0  0999 V2000
    6.8671   -2.8450    0.0000 O   0  0  0  0  0  0  0  0  0  0  0  0
    6.0010   -0.3450    0.0000 O   0  0  0  0  0  0  0  0  0  0  0  0
    5.1350   -2.8450    0.0000 O   0  0  0  0  0  0  0  0  0  0  0  0
    8.5991   -1.8450    0.0000 O   0  0  0  0  0  0  0  0  0  0  0  0
    6.8671    1.1550    0.0000 O   0  0  0  0  0  0  0  0  0  0  0  0
    6.8671   -4.8450    0.0000 O   0  0  0  0  0  0  0  0  0  0  0  0
    5.1350   -5.8450    0.0000 O   0  0  0  0  0  0  0  0  0  0  0  0
    3.4030   -4.8450    0.0000 O   0  0  0  0  0  0  0  0  0  0  0  0
    4.2690   -1.3450    0.0000 O   0  0  0  0  0  0  0  0  0  0  0  0
    2.5369   -3.3450    0.0000 O   0  0  0  0  0  0  0  0  0  0  0  0
    7.7331    1.6550    0.0000 O   0  0  0  0  0  0  0  0  0  0  0  0
    6.0010    5.6550    0.0000 O   0  0  0  0  0  0  0  0  0  0  0  0
    8.5991    0.1550    0.0000 N   0  0  0  0  0  0  0  0  0  0  0  0
    6.8671   -1.8450    0.0000 C   0  0  1  0  0  0  0  0  0  0  0  0
    7.7331   -1.3450    0.0000 C   0  0  1  0  0  0  0  0  0  0  0  0
    7.7331   -0.3450    0.0000 C   0  0  2  0  0  0  0  0  0  0  0  0
    6.0010   -1.3450    0.0000 C   0  0  1  0  0  0  0  0  0  0  0  0
    6.0010   -3.3450    0.0000 C   0  0  2  0  0  0  0  0  0  0  0  0
    6.8671    0.1550    0.0000 C   0  0  2  0  0  0  0  0  0  0  0  0
    6.0010   -4.3450    0.0000 C   0  0  1  0  0  0  0  0  0  0  0  0
    5.1350   -4.8450    0.0000 C   0  0  2  0  0  0  0  0  0  0  0  0
    4.2690   -4.3450    0.0000 C   0  0  2  0  0  0  0  0  0  0  0  0
    4.2690   -3.3450    0.0000 C   0  0  1  0  0  0  0  0  0  0  0  0
    5.1350   -1.8450    0.0000 C   0  0  0  0  0  0  0  0  0  0  0  0
    3.4030   -2.8450    0.0000 C   0  0  0  0  0  0  0  0  0  0  0  0
    8.5991    1.1550    0.0000 C   0  0  0  0  0  0  0  0  0  0  0  0
    6.0010    1.6550    0.0000 C   0  0  0  0  0  0  0  0  0  0  0  0
    9.4651    1.6550    0.0000 C   0  0  0  0  0  0  0  0  0  0  0  0
    6.0010    2.6550    0.0000 C   0  0  0  0  0  0  0  0  0  0  0  0
    5.1350    3.1550    0.0000 C   0  0  0  0  0  0  0  0  0  0  0  0
    6.8671    3.1550    0.0000 C   0  0  0  0  0  0  0  0  0  0  0  0
    5.1350    4.1550    0.0000 C   0  0  0  0  0  0  0  0  0  0  0  0
    6.8671    4.1550    0.0000 C   0  0  0  0  0  0  0  0  0  0  0  0
    6.0010    4.6550    0.0000 C   0  0  0  0  0  0  0  0  0  0  0  0
    5.1350    6.1550    0.0000 C   0  0  0  0  0  0  0  0  0  0  0  0
    7.4040   -2.1550    0.0000 H   0  0  0  0  0  0  0  0  0  0  0  0
    8.2700   -1.0350    0.0000 H   0  0  0  0  0  0  0  0  0  0  0  0
    7.7331    0.2750    0.0000 H   0  0  0  0  0  0  0  0  0  0  0  0
    5.4641   -1.0350    0.0000 H   0  0  0  0  0  0  0  0  0  0  0  0
    6.0010   -2.7250    0.0000 H   0  0  0  0  0  0  0  0  0  0  0  0
    7.4040    0.4650    0.0000 H   0  0  0  0  0  0  0  0  0  0  0  0
    6.0010   -4.9650    0.0000 H   0  0  0  0  0  0  0  0  0  0  0  0
    4.5981   -5.1550    0.0000 H   0  0  0  0  0  0  0  0  0  0  0  0
    4.2690   -4.9650    0.0000 H   0  0  0  0  0  0  0  0  0  0  0  0
    4.2690   -2.7250    0.0000 H   0  0  0  0  0  0  0  0  0  0  0  0
    4.7365   -2.3200    0.0000 H   0  0  0  0  0  0  0  0  0  0  0  0
    5.5335   -2.3200    0.0000 H   0  0  0  0  0  0  0  0  0  0  0  0
    9.1360   -0.1550    0.0000 H   0  0  0  0  0  0  0  0  0  0  0  0
    3.8015   -2.3700    0.0000 H   0  0  0  0  0  0  0  0  0  0  0  0
    3.0044   -2.3700    0.0000 H   0  0  0  0  0  0  0  0  0  0  0  0
    8.5991   -2.4650    0.0000 H   0  0  0  0  0  0  0  0  0  0  0  0
    6.8671   -5.4650    0.0000 H   0  0  0  0  0  0  0  0  0  0  0  0
    4.5981   -6.1550    0.0000 H   0  0  0  0  0  0  0  0  0  0  0  0
    3.4030   -5.4650    0.0000 H   0  0  0  0  0  0  0  0  0  0  0  0
    5.3905    1.7627    0.0000 H   0  0  0  0  0  0  0  0  0  0  0  0
    5.7890    1.0724    0.0000 H   0  0  0  0  0  0  0  0  0  0  0  0
    4.2690   -0.7250    0.0000 H   0  0  0  0  0  0  0  0  0  0  0  0
    2.0000   -3.0350    0.0000 H   0  0  0  0  0  0  0  0  0  0  0  0
    9.7751    1.1181    0.0000 H   0  0  0  0  0  0  0  0  0  0  0  0
   10.0021    1.9650    0.0000 H   0  0  0  0  0  0  0  0  0  0  0  0
    9.1551    2.1919    0.0000 H   0  0  0  0  0  0  0  0  0  0  0  0
    4.5981    2.8450    0.0000 H   0  0  0  0  0  0  0  0  0  0  0  0
    7.4040    2.8450    0.0000 H   0  0  0  0  0  0  0  0  0  0  0  0
    4.5981    4.4650    0.0000 H   0  0  0  0  0  0  0  0  0  0  0  0
    7.4040    4.4650    0.0000 H   0  0  0  0  0  0  0  0  0  0  0  0
    5.4450    6.6919    0.0000 H   0  0  0  0  0  0  0  0  0  0  0  0
    4.5981    6.4650    0.0000 H   0  0  0  0  0  0  0  0  0  0  0  0
    4.8250    5.6181    0.0000 H   0  0  0  0  0  0  0  0  0  0  0  0
 14  1  1  6  0  0  0
 18  1  1  1  0  0  0
  2 17  1  0  0  0  0
  2 19  1  0  0  0  0
  3 18  1  0  0  0  0
  3 23  1  0  0  0  0
 15  4  1  1  0  0  0
  4 51  1  0  0  0  0
 19  5  1  6  0  0  0
  5 27  1  0  0  0  0
 20  6  1  6  0  0  0
  6 52  1  0  0  0  0
 21  7  1  1  0  0  0
  7 53  1  0  0  0  0
 22  8  1  1  0  0  0
  8 54  1  0  0  0  0
  9 24  1  0  0  0  0
  9 57  1  0  0  0  0
 10 25  1  0  0  0  0
 10 58  1  0  0  0  0
 11 26  2  0  0  0  0
 12 34  1  0  0  0  0
 12 35  1  0  0  0  0
 16 13  1  6  0  0  0
 13 26  1  0  0  0  0
 13 48  1  0  0  0  0
 14 15  1  0  0  0  0
 14 17  1  0  0  0  0
 14 36  1  0  0  0  0
 15 16  1  0  0  0  0
 15 37  1  0  0  0  0
 16 19  1  0  0  0  0
 16 38  1  0  0  0  0
 17 24  1  1  0  0  0
 17 39  1  0  0  0  0
 18 20  1  0  0  0  0
 18 40  1  0  0  0  0
 19 41  1  0  0  0  0
 20 21  1  0  0  0  0
 20 42  1  0  0  0  0
 21 22  1  0  0  0  0
 21 43  1  0  0  0  0
 22 23  1  0  0  0  0
 22 44  1  0  0  0  0
 23 25  1  1  0  0  0
 23 45  1  0  0  0  0
 24 46  1  0  0  0  0
 24 47  1  0  0  0  0
 25 49  1  0  0  0  0
 25 50  1  0  0  0  0
 26 28  1  0  0  0  0
 27 29  1  0  0  0  0
 27 55  1  0  0  0  0
 27 56  1  0  0  0  0
 28 59  1  0  0  0  0
 28 60  1  0  0  0  0
 28 61  1  0  0  0  0
 29 30  2  0  0  0  0
 29 31  1  0  0  0  0
 30 32  1  0  0  0  0
 30 62  1  0  0  0  0
 31 33  2  0  0  0  0
 31 63  1  0  0  0  0
 32 34  2  0  0  0  0
 32 64  1  0  0  0  0
 33 34  1  0  0  0  0
 33 65  1  0  0  0  0
 35 66  1  0  0  0  0
 35 67  1  0  0  0  0
 35 68  1  0  0  0  0
M  END
> <PUBCHEM_COMPOUND_CID>
11049395

> <PUBCHEM_COMPOUND_CANONICALIZED>
1

> <PUBCHEM_CACTVS_COMPLEXITY>
662

> <PUBCHEM_CACTVS_HBOND_ACCEPTOR>
12

> <PUBCHEM_CACTVS_HBOND_DONOR>
7

> <PUBCHEM_CACTVS_ROTATABLE_BOND>
9

> <PUBCHEM_CACTVS_SUBSKEYS>
AAADcfB6PAAAAAAAAAAAAAAAAAAAAAAAAAA0SIAAAAAAAAABAAAAHgAQCAAADDzxmAcyDoLABgCIAiFSEAACCAAgIAAIiIAOCIgfNiKEsRqncCAn1hGfqAfw8C8OIAAAAAAAAABAAAAAAAAAAAAAAAAAAA==

> <PUBCHEM_IUPAC_OPENEYE_NAME>
N-[(2S,3R,4R,5S,6R)-4-hydroxy-6-(hydroxymethyl)-2-[(4-methoxyphenyl)methoxy]-5-[(2S,3R,4S,5R,6R)-3,4,5-trihydroxy-6-(hydroxymethyl)tetrahydropyran-2-yl]oxy-tetrahydropyran-3-yl]acetamide

> <PUBCHEM_IUPAC_CAS_NAME>
N-[(2S,3R,4R,5S,6R)-4-hydroxy-6-(hydroxymethyl)-2-[(4-methoxyphenyl)methoxy]-5-[[(2S,3R,4S,5R,6R)-3,4,5-trihydroxy-6-(hydroxymethyl)-2-oxanyl]oxy]-3-oxanyl]acetamide

> <PUBCHEM_IUPAC_NAME_MARKUP>
<I>N</I>-[(2<I>S</I>,3<I>R</I>,4<I>R</I>,5<I>S</I>,6<I>R</I>)-4-hydroxy-6-(hydroxymethyl)-2-[(4-methoxyphenyl)methoxy]-5-[(2<I>S</I>,3<I>R</I>,4<I>S</I>,5<I>R</I>,6<I>R</I>)-3,4,5-trihydroxy-6-(hydroxymethyl)oxan-2-yl]oxyoxan-3-yl]acetamide

> <PUBCHEM_IUPAC_NAME>
N-[(2S,3R,4R,5S,6R)-4-hydroxy-6-(hydroxymethyl)-2-[(4-methoxyphenyl)methoxy]-5-[(2S,3R,4S,5R,6R)-3,4,5-trihydroxy-6-(hydroxymethyl)oxan-2-yl]oxyoxan-3-yl]acetamide

> <PUBCHEM_IUPAC_SYSTEMATIC_NAME>
N-[(2S,3R,4R,5S,6R)-6-(hydroxymethyl)-5-[(2S,3R,4S,5R,6R)-6-(hydroxymethyl)-3,4,5-tris(oxidanyl)oxan-2-yl]oxy-2-[(4-methoxyphenyl)methoxy]-4-oxidanyl-oxan-3-yl]ethanamide

> <PUBCHEM_IUPAC_TRADITIONAL_NAME>
N-[(2S,3R,4R,5S,6R)-4-hydroxy-6-methylol-2-p-anisyloxy-5-[(2S,3R,4S,5R,6R)-3,4,5-trihydroxy-6-methylol-tetrahydropyran-2-yl]oxy-tetrahydropyran-3-yl]acetamide

> <PUBCHEM_IUPAC_INCHI>
InChI=1S/C22H33NO12/c1-10(26)23-15-17(28)20(35-22-19(30)18(29)16(27)13(7-24)33-22)14(8-25)34-21(15)32-9-11-3-5-12(31-2)6-4-11/h3-6,13-22,24-25,27-30H,7-9H2,1-2H3,(H,23,26)/t13-,14-,15-,16+,17-,18+,19-,20-,21+,22+/m1/s1

> <PUBCHEM_IUPAC_INCHIKEY>
NSWQUKDWCTZMBI-FJHIPHJXSA-N

> <PUBCHEM_XLOGP3_AA>
-2.7

> <PUBCHEM_EXACT_MASS>
503.20027549

> <PUBCHEM_MOLECULAR_FORMULA>
C22H33NO12

> <PUBCHEM_MOLECULAR_WEIGHT>
503.5

> <PUBCHEM_OPENEYE_CAN_SMILES>
CC(=O)NC1C(C(C(OC1OCC2=CC=C(C=C2)OC)CO)OC3C(C(C(C(O3)CO)O)O)O)O

> <PUBCHEM_OPENEYE_ISO_SMILES>
CC(=O)N[C@@H]1[C@H]([C@@H]([C@H](O[C@@H]1OCC2=CC=C(C=C2)OC)CO)O[C@H]3[C@@H]([C@H]([C@H]([C@H](O3)CO)O)O)O)O

> <PUBCHEM_CACTVS_TPSA>
197

> <PUBCHEM_MONOISOTOPIC_WEIGHT>
503.20027549

> <PUBCHEM_TOTAL_CHARGE>
0

> <PUBCHEM_HEAVY_ATOM_COUNT>
35

> <PUBCHEM_ATOM_DEF_STEREO_COUNT>
10

> <PUBCHEM_ATOM_UDEF_STEREO_COUNT>
0

> <PUBCHEM_BOND_DEF_STEREO_COUNT>
0

> <PUBCHEM_BOND_UDEF_STEREO_COUNT>
0

> <PUBCHEM_ISOTOPIC_ATOM_COUNT>
0

> <PUBCHEM_COMPONENT_COUNT>
1

> <PUBCHEM_CACTVS_TAUTO_COUNT>
-1

> <PUBCHEM_COORDINATE_TYPE>
1
5
255

> <PUBCHEM_BONDANNOTATIONS>
14  1  6
18  1  5
16  13  6
17  24  5
23  25  5
29  30  8
29  31  8
30  32  8
31  33  8
32  34  8
33  34  8
15  4  5
19  5  6
20  6  6
21  7  5
22  8  5

$$$$
