 
  -OEChem-10192104002D

 32 32  0     0  0  0  0  0  0999 V2000
    3.7320    2.9050    0.0000 O   0  5  0  0  0  0  0  0  0  0  0  0
    2.8660    1.4050    0.0000 O   0  0  0  0  0  0  0  0  0  0  0  0
    2.0000   -1.0950    0.0000 O   0  0  0  0  0  0  0  0  0  0  0  0
    3.7320   -0.0950    0.0000 N   0  0  0  0  0  0  0  0  0  0  0  0
    7.1962   -0.0950    0.0000 N   0  0  0  0  0  0  0  0  0  0  0  0
    5.4641   -0.0950    0.0000 N   0  0  0  0  0  0  0  0  0  0  0  0
    6.3301    1.4050    0.0000 N   0  0  0  0  0  0  0  0  0  0  0  0
    3.7320    1.9050    0.0000 N   0  3  0  0  0  0  0  0  0  0  0  0
    2.8660   -2.5950    0.0000 N   0  0  0  0  0  0  0  0  0  0  0  0
    4.5981    0.4050    0.0000 C   0  0  0  0  0  0  0  0  0  0  0  0
    4.5981    1.4050    0.0000 C   0  0  0  0  0  0  0  0  0  0  0  0
    5.4641    1.9050    0.0000 C   0  0  0  0  0  0  0  0  0  0  0  0
    6.3301    0.4050    0.0000 C   0  0  0  0  0  0  0  0  0  0  0  0
    8.0622    0.4050    0.0000 C   0  0  0  0  0  0  0  0  0  0  0  0
    3.7320   -1.0950    0.0000 C   0  0  0  0  0  0  0  0  0  0  0  0
    5.4641    2.9050    0.0000 C   0  0  0  0  0  0  0  0  0  0  0  0
    8.9282   -0.0950    0.0000 C   0  0  0  0  0  0  0  0  0  0  0  0
    2.8660   -1.5950    0.0000 C   0  0  0  0  0  0  0  0  0  0  0  0
    3.1951    0.2150    0.0000 H   0  0  0  0  0  0  0  0  0  0  0  0
    7.1962   -0.7150    0.0000 H   0  0  0  0  0  0  0  0  0  0  0  0
    8.4607    0.8799    0.0000 H   0  0  0  0  0  0  0  0  0  0  0  0
    7.6636    0.8799    0.0000 H   0  0  0  0  0  0  0  0  0  0  0  0
    3.9441   -1.6776    0.0000 H   0  0  0  0  0  0  0  0  0  0  0  0
    4.3426   -0.9873    0.0000 H   0  0  0  0  0  0  0  0  0  0  0  0
    6.0841    2.9050    0.0000 H   0  0  0  0  0  0  0  0  0  0  0  0
    5.4641    3.5250    0.0000 H   0  0  0  0  0  0  0  0  0  0  0  0
    4.8441    2.9050    0.0000 H   0  0  0  0  0  0  0  0  0  0  0  0
    8.6182   -0.6319    0.0000 H   0  0  0  0  0  0  0  0  0  0  0  0
    9.4651   -0.4050    0.0000 H   0  0  0  0  0  0  0  0  0  0  0  0
    9.2382    0.4419    0.0000 H   0  0  0  0  0  0  0  0  0  0  0  0
    2.3291   -2.9050    0.0000 H   0  0  0  0  0  0  0  0  0  0  0  0
    3.4030   -2.9050    0.0000 H   0  0  0  0  0  0  0  0  0  0  0  0
  1  8  1  0  0  0  0
  2  8  2  0  0  0  0
  3 18  2  0  0  0  0
  4 10  1  0  0  0  0
  4 15  1  0  0  0  0
  4 19  1  0  0  0  0
  5 13  1  0  0  0  0
  5 14  1  0  0  0  0
  5 20  1  0  0  0  0
  6 10  2  0  0  0  0
  6 13  1  0  0  0  0
  7 12  1  0  0  0  0
  7 13  2  0  0  0  0
  8 11  1  0  0  0  0
  9 18  1  0  0  0  0
  9 31  1  0  0  0  0
  9 32  1  0  0  0  0
 10 11  1  0  0  0  0
 11 12  2  0  0  0  0
 12 16  1  0  0  0  0
 14 17  1  0  0  0  0
 14 21  1  0  0  0  0
 14 22  1  0  0  0  0
 15 18  1  0  0  0  0
 15 23  1  0  0  0  0
 15 24  1  0  0  0  0
 16 25  1  0  0  0  0
 16 26  1  0  0  0  0
 16 27  1  0  0  0  0
 17 28  1  0  0  0  0
 17 29  1  0  0  0  0
 17 30  1  0  0  0  0
M  CHG  2   1  -1   8   1
M  END
> <PUBCHEM_COMPOUND_CID>
108137364

> <PUBCHEM_COMPOUND_CANONICALIZED>
1

> <PUBCHEM_CACTVS_COMPLEXITY>
307

> <PUBCHEM_CACTVS_HBOND_ACCEPTOR>
7

> <PUBCHEM_CACTVS_HBOND_DONOR>
3

> <PUBCHEM_CACTVS_ROTATABLE_BOND>
5

> <PUBCHEM_CACTVS_SUBSKEYS>
AAADccBzsAAAAAAAAAAAAAAAAAAAAAAAAAAsAAAAAAAAAAABgAAAHgAUAAAACAjBlgQD8JbYUACpAQdwdwCAgCkhEKAhGKC4VBqAaABAyOAUBAhIEILAQCAAAAAAAAAAAAAAAAAAAAAAAAAAAAAAAAAAAA==

> <PUBCHEM_IUPAC_OPENEYE_NAME>
2-[[2-(ethylamino)-6-methyl-5-nitro-pyrimidin-4-yl]amino]acetamide

> <PUBCHEM_IUPAC_CAS_NAME>
2-[[2-(ethylamino)-6-methyl-5-nitro-4-pyrimidinyl]amino]acetamide

> <PUBCHEM_IUPAC_NAME_MARKUP>
2-[[2-(ethylamino)-6-methyl-5-nitropyrimidin-4-yl]amino]acetamide

> <PUBCHEM_IUPAC_NAME>
2-[[2-(ethylamino)-6-methyl-5-nitropyrimidin-4-yl]amino]acetamide

> <PUBCHEM_IUPAC_SYSTEMATIC_NAME>
2-[[2-(ethylamino)-6-methyl-5-nitro-pyrimidin-4-yl]amino]ethanamide

> <PUBCHEM_IUPAC_TRADITIONAL_NAME>
2-[[2-(ethylamino)-6-methyl-5-nitro-pyrimidin-4-yl]amino]acetamide

> <PUBCHEM_IUPAC_INCHI>
InChI=1S/C9H14N6O3/c1-3-11-9-13-5(2)7(15(17)18)8(14-9)12-4-6(10)16/h3-4H2,1-2H3,(H2,10,16)(H2,11,12,13,14)

> <PUBCHEM_IUPAC_INCHIKEY>
PYNIHWAUPIOUGL-UHFFFAOYSA-N

> <PUBCHEM_XLOGP3_AA>
0.9

> <PUBCHEM_EXACT_MASS>
254.11273833

> <PUBCHEM_MOLECULAR_FORMULA>
C9H14N6O3

> <PUBCHEM_MOLECULAR_WEIGHT>
254.25

> <PUBCHEM_OPENEYE_CAN_SMILES>
CCNC1=NC(=C(C(=N1)NCC(=O)N)[N+](=O)[O-])C

> <PUBCHEM_OPENEYE_ISO_SMILES>
CCNC1=NC(=C(C(=N1)NCC(=O)N)[N+](=O)[O-])C

> <PUBCHEM_CACTVS_TPSA>
139

> <PUBCHEM_MONOISOTOPIC_WEIGHT>
254.11273833

> <PUBCHEM_TOTAL_CHARGE>
0

> <PUBCHEM_HEAVY_ATOM_COUNT>
18

> <PUBCHEM_ATOM_DEF_STEREO_COUNT>
0

> <PUBCHEM_ATOM_UDEF_STEREO_COUNT>
0

> <PUBCHEM_BOND_DEF_STEREO_COUNT>
0

> <PUBCHEM_BOND_UDEF_STEREO_COUNT>
0

> <PUBCHEM_ISOTOPIC_ATOM_COUNT>
0

> <PUBCHEM_COMPONENT_COUNT>
1

> <PUBCHEM_CACTVS_TAUTO_COUNT>
-1

> <PUBCHEM_COORDINATE_TYPE>
1
5
255

> <PUBCHEM_BONDANNOTATIONS>
10  11  8
11  12  8
6  10  8
6  13  8
7  12  8
7  13  8

$$$$
