 
  -OEChem-10192103322D

 40 40  0     1  0  0  0  0  0999 V2000
    3.0000   -1.3660    0.0000 O   0  0  0  0  0  0  0  0  0  0  0  0
    6.8660    0.8660    0.0000 O   0  0  0  0  0  0  0  0  0  0  0  0
    6.8660   -0.8660    0.0000 O   0  0  0  0  0  0  0  0  0  0  0  0
    5.3660    1.7320    0.0000 O   0  0  0  0  0  0  0  0  0  0  0  0
    5.3660   -1.7320    0.0000 O   0  0  0  0  0  0  0  0  0  0  0  0
    3.8660   -0.8660    0.0000 C   0  0  3  0  0  0  0  0  0  0  0  0
    3.0000   -0.3660    0.0000 C   0  0  0  0  0  0  0  0  0  0  0  0
    4.3660   -0.0000    0.0000 C   0  0  0  0  0  0  0  0  0  0  0  0
    4.3660   -1.7320    0.0000 C   0  0  0  0  0  0  0  0  0  0  0  0
    2.0000   -0.3660    0.0000 C   0  0  0  0  0  0  0  0  0  0  0  0
    3.5000    0.5000    0.0000 C   0  0  0  0  0  0  0  0  0  0  0  0
    5.3660   -0.0000    0.0000 C   0  0  0  0  0  0  0  0  0  0  0  0
    5.8660    0.8660    0.0000 C   0  0  0  0  0  0  0  0  0  0  0  0
    5.8660   -0.8660    0.0000 C   0  0  0  0  0  0  0  0  0  0  0  0
    7.3660    1.7320    0.0000 C   0  0  0  0  0  0  0  0  0  0  0  0
    7.3660   -1.7320    0.0000 C   0  0  0  0  0  0  0  0  0  0  0  0
    8.3660    1.7320    0.0000 C   0  0  0  0  0  0  0  0  0  0  0  0
    8.3660   -1.7320    0.0000 C   0  0  0  0  0  0  0  0  0  0  0  0
    4.4737    0.6106    0.0000 H   0  0  0  0  0  0  0  0  0  0  0  0
    3.7834    0.2121    0.0000 H   0  0  0  0  0  0  0  0  0  0  0  0
    3.8291   -2.0420    0.0000 H   0  0  0  0  0  0  0  0  0  0  0  0
    4.6760   -2.2690    0.0000 H   0  0  0  0  0  0  0  0  0  0  0  0
    4.9030   -1.4220    0.0000 H   0  0  0  0  0  0  0  0  0  0  0  0
    2.0000    0.2540    0.0000 H   0  0  0  0  0  0  0  0  0  0  0  0
    1.3800   -0.3660    0.0000 H   0  0  0  0  0  0  0  0  0  0  0  0
    2.0000   -0.9860    0.0000 H   0  0  0  0  0  0  0  0  0  0  0  0
    4.0369    0.1900    0.0000 H   0  0  0  0  0  0  0  0  0  0  0  0
    3.8100    1.0369    0.0000 H   0  0  0  0  0  0  0  0  0  0  0  0
    2.9631    0.8100    0.0000 H   0  0  0  0  0  0  0  0  0  0  0  0
    5.0560    0.5369    0.0000 H   0  0  0  0  0  0  0  0  0  0  0  0
    7.4737    2.3426    0.0000 H   0  0  0  0  0  0  0  0  0  0  0  0
    6.7834    1.9441    0.0000 H   0  0  0  0  0  0  0  0  0  0  0  0
    6.7834   -1.9441    0.0000 H   0  0  0  0  0  0  0  0  0  0  0  0
    7.4737   -2.3426    0.0000 H   0  0  0  0  0  0  0  0  0  0  0  0
    8.3660    1.1120    0.0000 H   0  0  0  0  0  0  0  0  0  0  0  0
    8.9860    1.7320    0.0000 H   0  0  0  0  0  0  0  0  0  0  0  0
    8.3660    2.3521    0.0000 H   0  0  0  0  0  0  0  0  0  0  0  0
    8.3660   -2.3521    0.0000 H   0  0  0  0  0  0  0  0  0  0  0  0
    8.9860   -1.7320    0.0000 H   0  0  0  0  0  0  0  0  0  0  0  0
    8.3660   -1.1120    0.0000 H   0  0  0  0  0  0  0  0  0  0  0  0
  1  6  1  0  0  0  0
  1  7  1  0  0  0  0
  2 13  1  0  0  0  0
  2 15  1  0  0  0  0
  3 14  1  0  0  0  0
  3 16  1  0  0  0  0
  4 13  2  0  0  0  0
  5 14  2  0  0  0  0
  6  7  1  0  0  0  0
  6  8  1  0  0  0  0
  6  9  1  0  0  0  0
  7 10  1  0  0  0  0
  7 11  1  0  0  0  0
  8 12  1  0  0  0  0
  8 19  1  0  0  0  0
  8 20  1  0  0  0  0
  9 21  1  0  0  0  0
  9 22  1  0  0  0  0
  9 23  1  0  0  0  0
 10 24  1  0  0  0  0
 10 25  1  0  0  0  0
 10 26  1  0  0  0  0
 11 27  1  0  0  0  0
 11 28  1  0  0  0  0
 11 29  1  0  0  0  0
 12 13  1  0  0  0  0
 12 14  1  0  0  0  0
 12 30  1  0  0  0  0
 15 17  1  0  0  0  0
 15 31  1  0  0  0  0
 15 32  1  0  0  0  0
 16 18  1  0  0  0  0
 16 33  1  0  0  0  0
 16 34  1  0  0  0  0
 17 35  1  0  0  0  0
 17 36  1  0  0  0  0
 17 37  1  0  0  0  0
 18 38  1  0  0  0  0
 18 39  1  0  0  0  0
 18 40  1  0  0  0  0
M  END
> <PUBCHEM_COMPOUND_CID>
10956242

> <PUBCHEM_COMPOUND_CANONICALIZED>
1

> <PUBCHEM_CACTVS_COMPLEXITY>
318

> <PUBCHEM_CACTVS_HBOND_ACCEPTOR>
5

> <PUBCHEM_CACTVS_HBOND_DONOR>
0

> <PUBCHEM_CACTVS_ROTATABLE_BOND>
8

> <PUBCHEM_CACTVS_SUBSKEYS>
AAADceBwOAAAAAAAAAAAAAAAEgAAAAAAAAAAAAAAAAAAAAAAAAAAGgAAAAAADUSggAICCAAABAAIAACQCAAAAAAAAAAAAAEAAAAAABYIAAACAAAFIAAAAAHKbBxOgAAAAAAAAAAAAAAAAAAAAAAAAAAAAA==

> <PUBCHEM_IUPAC_OPENEYE_NAME>
diethyl 2-[(2,3,3-trimethyloxiran-2-yl)methyl]propanedioate

> <PUBCHEM_IUPAC_CAS_NAME>
2-[(2,3,3-trimethyl-2-oxiranyl)methyl]propanedioic acid diethyl ester

> <PUBCHEM_IUPAC_NAME_MARKUP>
diethyl 2-[(2,3,3-trimethyloxiran-2-yl)methyl]propanedioate

> <PUBCHEM_IUPAC_NAME>
diethyl 2-[(2,3,3-trimethyloxiran-2-yl)methyl]propanedioate

> <PUBCHEM_IUPAC_SYSTEMATIC_NAME>
diethyl 2-[(2,3,3-trimethyloxiran-2-yl)methyl]propanedioate

> <PUBCHEM_IUPAC_TRADITIONAL_NAME>
2-[(2,3,3-trimethyloxiran-2-yl)methyl]malonic acid diethyl ester

> <PUBCHEM_IUPAC_INCHI>
InChI=1S/C13H22O5/c1-6-16-10(14)9(11(15)17-7-2)8-13(5)12(3,4)18-13/h9H,6-8H2,1-5H3

> <PUBCHEM_IUPAC_INCHIKEY>
IVWVPGPPZGVZHL-UHFFFAOYSA-N

> <PUBCHEM_XLOGP3_AA>
1.8

> <PUBCHEM_EXACT_MASS>
258.14672380

> <PUBCHEM_MOLECULAR_FORMULA>
C13H22O5

> <PUBCHEM_MOLECULAR_WEIGHT>
258.31

> <PUBCHEM_OPENEYE_CAN_SMILES>
CCOC(=O)C(CC1(C(O1)(C)C)C)C(=O)OCC

> <PUBCHEM_OPENEYE_ISO_SMILES>
CCOC(=O)C(CC1(C(O1)(C)C)C)C(=O)OCC

> <PUBCHEM_CACTVS_TPSA>
65.1

> <PUBCHEM_MONOISOTOPIC_WEIGHT>
258.14672380

> <PUBCHEM_TOTAL_CHARGE>
0

> <PUBCHEM_HEAVY_ATOM_COUNT>
18

> <PUBCHEM_ATOM_DEF_STEREO_COUNT>
0

> <PUBCHEM_ATOM_UDEF_STEREO_COUNT>
1

> <PUBCHEM_BOND_DEF_STEREO_COUNT>
0

> <PUBCHEM_BOND_UDEF_STEREO_COUNT>
0

> <PUBCHEM_ISOTOPIC_ATOM_COUNT>
0

> <PUBCHEM_COMPONENT_COUNT>
1

> <PUBCHEM_CACTVS_TAUTO_COUNT>
-1

> <PUBCHEM_COORDINATE_TYPE>
1
5
255

> <PUBCHEM_BONDANNOTATIONS>
6  9  3

$$$$
