 
  -OEChem-10192103572D

 12 12  0     0  0  0  0  0  0999 V2000
    3.0000   -0.7990    0.0000 P   0  0  0  0  0  0  0  0  0  0  0  0
    3.0000   -1.7990    0.0000 O   0  0  0  0  0  0  0  0  0  0  0  0
    2.0000   -0.7990    0.0000 O   0  0  0  0  0  0  0  0  0  0  0  0
    4.0000   -0.7990    0.0000 O   0  0  0  0  0  0  0  0  0  0  0  0
    2.0000   -1.7990    0.0000 O   0  0  0  0  0  0  0  0  0  0  0  0
    3.0000    0.2010    0.0000 O   0  0  0  0  0  0  0  0  0  0  0  0
    4.5000    0.0670    0.0000 O   0  0  0  0  0  0  0  0  0  0  0  0
    5.5000    0.0670    0.0000 O   0  0  0  0  0  0  0  0  0  0  0  0
    7.0000    0.9330    0.0000 O   0  0  0  0  0  0  0  0  0  0  0  0
    5.5000    1.7990    0.0000 O   0  0  0  0  0  0  0  0  0  0  0  0
    6.0000    0.9330    0.0000 C   0  0  0  0  0  0  0  0  0  0  0  0
    7.3100    1.4700    0.0000 H   0  0  0  0  0  0  0  0  0  0  0  0
  1  2  1  0  0  0  0
  1  3  1  0  0  0  0
  1  4  1  0  0  0  0
  1  6  2  0  0  0  0
  2  5  1  0  0  0  0
  3  5  1  0  0  0  0
  4  7  1  0  0  0  0
  7  8  1  0  0  0  0
  8 11  1  0  0  0  0
  9 11  1  0  0  0  0
  9 12  1  0  0  0  0
 10 11  2  0  0  0  0
M  END
> <PUBCHEM_COMPOUND_CID>
129716974

> <PUBCHEM_COMPOUND_CANONICALIZED>
1

> <PUBCHEM_CACTVS_COMPLEXITY>
188

> <PUBCHEM_CACTVS_HBOND_ACCEPTOR>
9

> <PUBCHEM_CACTVS_HBOND_DONOR>
1

> <PUBCHEM_CACTVS_ROTATABLE_BOND>
4

> <PUBCHEM_CACTVS_SUBSKEYS>
AAADcQAAPAIAAAAAAAAAAAAAAABIAAAAAAAAAAAAAAAAAAAAAAAAAgAADCAAAAAAAAAACAAAAhAIQAAACIAAAAAAAAAAAAAAAAAAAAAAAAAAAAAAAAAAAAAAAAAAAAAAAAAAAAAAAAAAAAAAAAAAAAAAAA==

> <PUBCHEM_IUPAC_OPENEYE_NAME>
(4-oxo-1,2,3,4lambda5-trioxaphosphetan-4-yl)peroxy hydrogen carbonate

> <PUBCHEM_IUPAC_CAS_NAME>
carbonic acid (4-oxo-1,2,3,4lambda5-trioxaphosphetan-4-yl)dioxy ester

> <PUBCHEM_IUPAC_NAME_MARKUP>
(4-oxo-1,2,3,4&lambda;<SUP>5</SUP>-trioxaphosphetan-4-yl)peroxy hydrogen carbonate

> <PUBCHEM_IUPAC_NAME>
(4-oxo-1,2,3,4lambda5-trioxaphosphetan-4-yl)peroxy hydrogen carbonate

> <PUBCHEM_IUPAC_SYSTEMATIC_NAME>
(4-oxidanylidene-1,2,3,4lambda5-trioxaphosphetan-4-yl)peroxy hydrogen carbonate

> <PUBCHEM_IUPAC_TRADITIONAL_NAME>
carbonic acid (4-keto-1,2,3,4lambda5-trioxaphosphetan-4-yl)peroxy ester

> <PUBCHEM_IUPAC_INCHI>
InChI=1S/CHO9P/c2-1(3)5-6-8-11(4)9-7-10-11/h(H,2,3)

> <PUBCHEM_IUPAC_INCHIKEY>
JGODXVDOOIKNOQ-UHFFFAOYSA-N

> <PUBCHEM_XLOGP3_AA>
-0.3

> <PUBCHEM_EXACT_MASS>
187.93581860

> <PUBCHEM_MOLECULAR_FORMULA>
CHO9P

> <PUBCHEM_MOLECULAR_WEIGHT>
187.99

> <PUBCHEM_OPENEYE_CAN_SMILES>
C(=O)(O)OOOP1(=O)OOO1

> <PUBCHEM_OPENEYE_ISO_SMILES>
C(=O)(O)OOOP1(=O)OOO1

> <PUBCHEM_CACTVS_TPSA>
110

> <PUBCHEM_MONOISOTOPIC_WEIGHT>
187.93581860

> <PUBCHEM_TOTAL_CHARGE>
0

> <PUBCHEM_HEAVY_ATOM_COUNT>
11

> <PUBCHEM_ATOM_DEF_STEREO_COUNT>
0

> <PUBCHEM_ATOM_UDEF_STEREO_COUNT>
0

> <PUBCHEM_BOND_DEF_STEREO_COUNT>
0

> <PUBCHEM_BOND_UDEF_STEREO_COUNT>
0

> <PUBCHEM_ISOTOPIC_ATOM_COUNT>
0

> <PUBCHEM_COMPONENT_COUNT>
1

> <PUBCHEM_CACTVS_TAUTO_COUNT>
-1

> <PUBCHEM_COORDINATE_TYPE>
1
5
255

$$$$
