 
  -OEChem-10192103392D

 38 40  0     1  0  0  0  0  0999 V2000
    5.1350   -1.1296    0.0000 O   0  0  0  0  0  0  0  0  0  0  0  0
    6.8671   -1.1296    0.0000 O   0  0  0  0  0  0  0  0  0  0  0  0
    5.1350   -4.1296    0.0000 O   0  0  0  0  0  0  0  0  0  0  0  0
    6.8671   -3.1296    0.0000 O   0  0  0  0  0  0  0  0  0  0  0  0
    3.4030   -3.1296    0.0000 O   0  0  0  0  0  0  0  0  0  0  0  0
    2.5369   -1.6296    0.0000 O   0  0  0  0  0  0  0  0  0  0  0  0
    3.4030   -0.1296    0.0000 O   0  0  0  0  0  0  0  0  0  0  0  0
    6.8510    2.9119    0.0000 O   0  0  0  0  0  0  0  0  0  0  0  0
    7.7452    4.4396    0.0000 O   0  0  0  0  0  0  0  0  0  0  0  0
    5.1350   -3.1296    0.0000 C   0  0  3  0  0  0  0  0  0  0  0  0
    6.0010   -2.6296    0.0000 C   0  0  3  0  0  0  0  0  0  0  0  0
    4.2690   -2.6296    0.0000 C   0  0  3  0  0  0  0  0  0  0  0  0
    4.2690   -1.6296    0.0000 C   0  0  3  0  0  0  0  0  0  0  0  0
    6.0010   -1.6296    0.0000 C   0  0  3  0  0  0  0  0  0  0  0  0
    3.4030   -1.1296    0.0000 C   0  0  0  0  0  0  0  0  0  0  0  0
    6.8671   -0.1296    0.0000 C   0  0  0  0  0  0  0  0  0  0  0  0
    7.7331    0.3704    0.0000 C   0  0  0  0  0  0  0  0  0  0  0  0
    6.0010    0.3704    0.0000 C   0  0  0  0  0  0  0  0  0  0  0  0
    7.7331    1.3704    0.0000 C   0  0  0  0  0  0  0  0  0  0  0  0
    6.8671    1.8704    0.0000 C   0  0  0  0  0  0  0  0  0  0  0  0
    6.0010    1.3704    0.0000 C   0  0  0  0  0  0  0  0  0  0  0  0
    8.6431    1.8772    0.0000 C   0  0  0  0  0  0  0  0  0  0  0  0
    8.6511    2.9188    0.0000 C   0  0  0  0  0  0  0  0  0  0  0  0
    7.7490    3.4396    0.0000 C   0  0  0  0  0  0  0  0  0  0  0  0
    4.5981   -3.4396    0.0000 H   0  0  0  0  0  0  0  0  0  0  0  0
    6.0010   -3.2496    0.0000 H   0  0  0  0  0  0  0  0  0  0  0  0
    3.7320   -2.3196    0.0000 H   0  0  0  0  0  0  0  0  0  0  0  0
    6.0010   -1.0096    0.0000 H   0  0  0  0  0  0  0  0  0  0  0  0
    4.2690   -1.0096    0.0000 H   0  0  0  0  0  0  0  0  0  0  0  0
    5.6720   -4.4396    0.0000 H   0  0  0  0  0  0  0  0  0  0  0  0
    7.4040   -2.8196    0.0000 H   0  0  0  0  0  0  0  0  0  0  0  0
    3.4030   -3.7496    0.0000 H   0  0  0  0  0  0  0  0  0  0  0  0
    8.2700    0.0604    0.0000 H   0  0  0  0  0  0  0  0  0  0  0  0
    5.4641    0.0604    0.0000 H   0  0  0  0  0  0  0  0  0  0  0  0
    2.0000   -1.3196    0.0000 H   0  0  0  0  0  0  0  0  0  0  0  0
    5.4641    1.6804    0.0000 H   0  0  0  0  0  0  0  0  0  0  0  0
    9.1764    1.5610    0.0000 H   0  0  0  0  0  0  0  0  0  0  0  0
    9.1892    3.2268    0.0000 H   0  0  0  0  0  0  0  0  0  0  0  0
  1 13  1  0  0  0  0
  1 14  1  0  0  0  0
  2 14  1  0  0  0  0
  2 16  1  0  0  0  0
  3 10  1  0  0  0  0
  3 30  1  0  0  0  0
  4 11  1  0  0  0  0
  4 31  1  0  0  0  0
  5 12  1  0  0  0  0
  5 32  1  0  0  0  0
  6 15  1  0  0  0  0
  6 35  1  0  0  0  0
  7 15  2  0  0  0  0
  8 20  1  0  0  0  0
  8 24  1  0  0  0  0
  9 24  2  0  0  0  0
 10 11  1  0  0  0  0
 10 12  1  0  0  0  0
 10 25  1  0  0  0  0
 11 14  1  0  0  0  0
 11 26  1  0  0  0  0
 12 13  1  0  0  0  0
 12 27  1  0  0  0  0
 13 15  1  0  0  0  0
 13 29  1  0  0  0  0
 14 28  1  0  0  0  0
 16 17  2  0  0  0  0
 16 18  1  0  0  0  0
 17 19  1  0  0  0  0
 17 33  1  0  0  0  0
 18 21  2  0  0  0  0
 18 34  1  0  0  0  0
 19 20  2  0  0  0  0
 19 22  1  0  0  0  0
 20 21  1  0  0  0  0
 21 36  1  0  0  0  0
 22 23  2  0  0  0  0
 22 37  1  0  0  0  0
 23 24  1  0  0  0  0
 23 38  1  0  0  0  0
M  END
> <PUBCHEM_COMPOUND_CID>
131839510

> <PUBCHEM_COMPOUND_CANONICALIZED>
1

> <PUBCHEM_CACTVS_COMPLEXITY>
533

> <PUBCHEM_CACTVS_HBOND_ACCEPTOR>
9

> <PUBCHEM_CACTVS_HBOND_DONOR>
4

> <PUBCHEM_CACTVS_ROTATABLE_BOND>
3

> <PUBCHEM_CACTVS_SUBSKEYS>
AAADccBwPAAAAAAAAAAAAAAAAAAAAAAAAAA0QIAAAAAAAACBAAAAGgAACAAADBSwmAMwDoAABgCIAiDSCAICCAAgIAAIiAFGCMgdNjaEMR6ieiCl4BEPqYfK7DxOAQABAAAIAAACAAIAABAAAAAAAAAAAA==

> <PUBCHEM_IUPAC_OPENEYE_NAME>
3,4,5-trihydroxy-6-(2-oxochromen-6-yl)oxy-tetrahydropyran-2-carboxylic acid

> <PUBCHEM_IUPAC_CAS_NAME>
3,4,5-trihydroxy-6-[(2-oxo-1-benzopyran-6-yl)oxy]-2-oxanecarboxylic acid

> <PUBCHEM_IUPAC_NAME_MARKUP>
3,4,5-trihydroxy-6-(2-oxochromen-6-yl)oxyoxane-2-carboxylic acid

> <PUBCHEM_IUPAC_NAME>
3,4,5-trihydroxy-6-(2-oxochromen-6-yl)oxyoxane-2-carboxylic acid

> <PUBCHEM_IUPAC_SYSTEMATIC_NAME>
3,4,5-tris(oxidanyl)-6-(2-oxidanylidenechromen-6-yl)oxy-oxane-2-carboxylic acid

> <PUBCHEM_IUPAC_TRADITIONAL_NAME>
3,4,5-trihydroxy-6-(2-ketochromen-6-yl)oxy-tetrahydropyran-2-carboxylic acid

> <PUBCHEM_IUPAC_INCHI>
InChI=1S/C15H14O9/c16-9-4-1-6-5-7(2-3-8(6)23-9)22-15-12(19)10(17)11(18)13(24-15)14(20)21/h1-5,10-13,15,17-19H,(H,20,21)

> <PUBCHEM_IUPAC_INCHIKEY>
XRSAXATZSBJZIQ-UHFFFAOYSA-N

> <PUBCHEM_XLOGP3_AA>
0

> <PUBCHEM_EXACT_MASS>
338.06378202

> <PUBCHEM_MOLECULAR_FORMULA>
C15H14O9

> <PUBCHEM_MOLECULAR_WEIGHT>
338.27

> <PUBCHEM_OPENEYE_CAN_SMILES>
C1=CC2=C(C=CC(=O)O2)C=C1OC3C(C(C(C(O3)C(=O)O)O)O)O

> <PUBCHEM_OPENEYE_ISO_SMILES>
C1=CC2=C(C=CC(=O)O2)C=C1OC3C(C(C(C(O3)C(=O)O)O)O)O

> <PUBCHEM_CACTVS_TPSA>
143

> <PUBCHEM_MONOISOTOPIC_WEIGHT>
338.06378202

> <PUBCHEM_TOTAL_CHARGE>
0

> <PUBCHEM_HEAVY_ATOM_COUNT>
24

> <PUBCHEM_ATOM_DEF_STEREO_COUNT>
0

> <PUBCHEM_ATOM_UDEF_STEREO_COUNT>
5

> <PUBCHEM_BOND_DEF_STEREO_COUNT>
0

> <PUBCHEM_BOND_UDEF_STEREO_COUNT>
0

> <PUBCHEM_ISOTOPIC_ATOM_COUNT>
0

> <PUBCHEM_COMPONENT_COUNT>
1

> <PUBCHEM_CACTVS_TAUTO_COUNT>
-1

> <PUBCHEM_COORDINATE_TYPE>
1
5
255

> <PUBCHEM_BONDANNOTATIONS>
13  15  3
16  17  8
16  18  8
17  19  8
18  21  8
19  20  8
19  22  8
14  2  3
20  21  8
22  23  8
23  24  8
10  3  3
11  4  3
12  5  3
8  20  8
8  24  8

$$$$
