 
  -OEChem-10192103332D

 28 27  0     1  0  0  0  0  0999 V2000
    2.5369   -0.4400    0.0000 O   0  0  0  0  0  0  0  0  0  0  0  0
    6.0010    1.5600    0.0000 O   0  0  0  0  0  0  0  0  0  0  0  0
    3.4030   -1.9400    0.0000 O   0  0  0  0  0  0  0  0  0  0  0  0
    6.8671    0.0600    0.0000 O   0  0  0  0  0  0  0  0  0  0  0  0
    5.1350   -1.9400    0.0000 O   0  0  0  0  0  0  0  0  0  0  0  0
    6.0010   -1.4400    0.0000 O   0  0  0  0  0  0  0  0  0  0  0  0
    4.2690   -0.4400    0.0000 C   0  0  0  0  0  0  0  0  0  0  0  0
    5.1350    0.0600    0.0000 C   0  0  0  0  0  0  0  0  0  0  0  0
    3.4030    0.0600    0.0000 C   0  0  3  0  0  0  0  0  0  0  0  0
    5.1350    1.0600    0.0000 C   0  0  3  0  0  0  0  0  0  0  0  0
    3.4030    1.0600    0.0000 C   0  0  0  0  0  0  0  0  0  0  0  0
    4.2690    1.5600    0.0000 C   0  0  0  0  0  0  0  0  0  0  0  0
    4.2690   -1.4400    0.0000 C   0  0  0  0  0  0  0  0  0  0  0  0
    6.0010   -0.4400    0.0000 C   0  0  0  0  0  0  0  0  0  0  0  0
    2.5369    1.5600    0.0000 C   0  0  0  0  0  0  0  0  0  0  0  0
    4.2690    2.5600    0.0000 C   0  0  0  0  0  0  0  0  0  0  0  0
    3.4030   -0.5600    0.0000 H   0  0  0  0  0  0  0  0  0  0  0  0
    5.1350    1.6800    0.0000 H   0  0  0  0  0  0  0  0  0  0  0  0
    3.9399    1.3700    0.0000 H   0  0  0  0  0  0  0  0  0  0  0  0
    3.7320    1.2500    0.0000 H   0  0  0  0  0  0  0  0  0  0  0  0
    2.0000   -0.1300    0.0000 H   0  0  0  0  0  0  0  0  0  0  0  0
    6.0010    2.1800    0.0000 H   0  0  0  0  0  0  0  0  0  0  0  0
    2.5369    2.1800    0.0000 H   0  0  0  0  0  0  0  0  0  0  0  0
    2.0000    1.2500    0.0000 H   0  0  0  0  0  0  0  0  0  0  0  0
    4.8059    2.8700    0.0000 H   0  0  0  0  0  0  0  0  0  0  0  0
    3.7320    2.8700    0.0000 H   0  0  0  0  0  0  0  0  0  0  0  0
    3.4030   -2.5600    0.0000 H   0  0  0  0  0  0  0  0  0  0  0  0
    7.4040   -0.2500    0.0000 H   0  0  0  0  0  0  0  0  0  0  0  0
  1  9  1  0  0  0  0
  1 21  1  0  0  0  0
  2 10  1  0  0  0  0
  2 22  1  0  0  0  0
  3 13  1  0  0  0  0
  3 27  1  0  0  0  0
  4 14  1  0  0  0  0
  4 28  1  0  0  0  0
  5 13  2  0  0  0  0
  6 14  2  0  0  0  0
  7  8  2  0  0  0  0
  7  9  1  0  0  0  0
  7 13  1  0  0  0  0
  8 10  1  0  0  0  0
  8 14  1  0  0  0  0
  9 11  1  0  0  0  0
  9 17  1  0  0  0  0
 10 12  1  0  0  0  0
 10 18  1  0  0  0  0
 11 15  2  0  0  0  0
 11 19  1  0  0  0  0
 12 16  2  0  0  0  0
 12 20  1  0  0  0  0
 15 23  1  0  0  0  0
 15 24  1  0  0  0  0
 16 25  1  0  0  0  0
 16 26  1  0  0  0  0
M  END
> <PUBCHEM_COMPOUND_CID>
88517665

> <PUBCHEM_COMPOUND_CANONICALIZED>
1

> <PUBCHEM_CACTVS_COMPLEXITY>
320

> <PUBCHEM_CACTVS_HBOND_ACCEPTOR>
6

> <PUBCHEM_CACTVS_HBOND_DONOR>
4

> <PUBCHEM_CACTVS_ROTATABLE_BOND>
6

> <PUBCHEM_CACTVS_SUBSKEYS>
AAADccBwOAAAAAAAAAAAAAAAAAAAAAAAAAAAAAAAAAAAAAAAAAAAGgAACAAADBSggAIACAAAAgCIAiDSCAAAAAAgAAAICAEAAEgAFBQAAQAAUAAFoAAIEQIAAAAAAAAAAAAAAAAAAAAAAAAAAAAAAAAAAA==

> <PUBCHEM_IUPAC_OPENEYE_NAME>
(Z)-2,3-bis(1-hydroxyallyl)but-2-enedioic acid

> <PUBCHEM_IUPAC_CAS_NAME>
(Z)-2,3-bis(1-hydroxyprop-2-enyl)-2-butenedioic acid

> <PUBCHEM_IUPAC_NAME_MARKUP>
(<I>Z</I>)-2,3-bis(1-hydroxyprop-2-enyl)but-2-enedioic acid

> <PUBCHEM_IUPAC_NAME>
(Z)-2,3-bis(1-hydroxyprop-2-enyl)but-2-enedioic acid

> <PUBCHEM_IUPAC_SYSTEMATIC_NAME>
(Z)-2,3-bis(1-oxidanylprop-2-enyl)but-2-enedioic acid

> <PUBCHEM_IUPAC_TRADITIONAL_NAME>
(Z)-2,3-bis(1-hydroxyallyl)but-2-enedioic acid

> <PUBCHEM_IUPAC_INCHI>
InChI=1S/C10H12O6/c1-3-5(11)7(9(13)14)8(10(15)16)6(12)4-2/h3-6,11-12H,1-2H2,(H,13,14)(H,15,16)/b8-7-

> <PUBCHEM_IUPAC_INCHIKEY>
QBMBLGBYLKMYHZ-FPLPWBNLSA-N

> <PUBCHEM_XLOGP3_AA>
-0.5

> <PUBCHEM_EXACT_MASS>
228.06338810

> <PUBCHEM_MOLECULAR_FORMULA>
C10H12O6

> <PUBCHEM_MOLECULAR_WEIGHT>
228.20

> <PUBCHEM_OPENEYE_CAN_SMILES>
C=CC(C(=C(C(C=C)O)C(=O)O)C(=O)O)O

> <PUBCHEM_OPENEYE_ISO_SMILES>
C=CC(/C(=C(\C(C=C)O)/C(=O)O)/C(=O)O)O

> <PUBCHEM_CACTVS_TPSA>
115

> <PUBCHEM_MONOISOTOPIC_WEIGHT>
228.06338810

> <PUBCHEM_TOTAL_CHARGE>
0

> <PUBCHEM_HEAVY_ATOM_COUNT>
16

> <PUBCHEM_ATOM_DEF_STEREO_COUNT>
0

> <PUBCHEM_ATOM_UDEF_STEREO_COUNT>
2

> <PUBCHEM_BOND_DEF_STEREO_COUNT>
1

> <PUBCHEM_BOND_UDEF_STEREO_COUNT>
0

> <PUBCHEM_ISOTOPIC_ATOM_COUNT>
0

> <PUBCHEM_COMPONENT_COUNT>
1

> <PUBCHEM_CACTVS_TAUTO_COUNT>
-1

> <PUBCHEM_COORDINATE_TYPE>
1
5
255

> <PUBCHEM_BONDANNOTATIONS>
9  1  3
10  2  3

$$$$
