 
  -OEChem-10192103352D

 29 30  0     1  0  0  0  0  0999 V2000
    5.3978   -1.2420    0.0000 O   0  0  0  0  0  0  0  0  0  0  0  0
    7.2951    0.3717    0.0000 O   0  0  0  0  0  0  0  0  0  0  0  0
    7.2951   -1.2377    0.0000 O   0  0  0  0  0  0  0  0  0  0  0  0
    3.3100   -1.2990    0.0000 O   0  0  0  0  0  0  0  0  0  0  0  0
    2.3100    0.4330    0.0000 O   0  0  0  0  0  0  0  0  0  0  0  0
    3.8100    1.2990    0.0000 O   0  0  0  0  0  0  0  0  0  0  0  0
    6.3488    0.0670    0.0000 C   0  0  3  0  0  0  0  0  0  0  0  0
    6.3488   -0.9330    0.0000 C   0  0  2  0  0  0  0  0  0  0  0  0
    5.3978    0.3760    0.0000 C   0  0  0  0  0  0  0  0  0  0  0  0
    4.8100   -0.4330    0.0000 C   0  0  1  0  0  0  0  0  0  0  0  0
    7.8787   -0.4330    0.0000 C   0  0  0  0  0  0  0  0  0  0  0  0
    3.8100   -0.4330    0.0000 C   0  0  1  0  0  0  0  0  0  0  0  0
    8.6877   -1.0208    0.0000 C   0  0  0  0  0  0  0  0  0  0  0  0
    8.6877    0.1548    0.0000 C   0  0  0  0  0  0  0  0  0  0  0  0
    3.3100    0.4330    0.0000 C   0  0  0  0  0  0  0  0  0  0  0  0
    6.3496    0.6870    0.0000 H   0  0  0  0  0  0  0  0  0  0  0  0
    6.3500   -1.7830    0.0000 H   0  0  0  0  0  0  0  0  0  0  0  0
    5.6500    0.9424    0.0000 H   0  0  0  0  0  0  0  0  0  0  0  0
    4.8608    0.6860    0.0000 H   0  0  0  0  0  0  0  0  0  0  0  0
    5.6600   -0.4330    0.0000 H   0  0  0  0  0  0  0  0  0  0  0  0
    4.1200   -0.9699    0.0000 H   0  0  0  0  0  0  0  0  0  0  0  0
    8.3233   -1.5224    0.0000 H   0  0  0  0  0  0  0  0  0  0  0  0
    9.1893   -1.3852    0.0000 H   0  0  0  0  0  0  0  0  0  0  0  0
    9.0521   -0.5192    0.0000 H   0  0  0  0  0  0  0  0  0  0  0  0
    9.0521   -0.3468    0.0000 H   0  0  0  0  0  0  0  0  0  0  0  0
    9.1893    0.5192    0.0000 H   0  0  0  0  0  0  0  0  0  0  0  0
    8.3233    0.6564    0.0000 H   0  0  0  0  0  0  0  0  0  0  0  0
    2.6900   -1.2990    0.0000 H   0  0  0  0  0  0  0  0  0  0  0  0
    2.0000    0.9699    0.0000 H   0  0  0  0  0  0  0  0  0  0  0  0
  1  8  1  0  0  0  0
  1 10  1  0  0  0  0
  2  7  1  0  0  0  0
  2 11  1  0  0  0  0
  3  8  1  0  0  0  0
  3 11  1  0  0  0  0
 12  4  1  6  0  0  0
  4 28  1  0  0  0  0
  5 15  1  0  0  0  0
  5 29  1  0  0  0  0
  6 15  2  0  0  0  0
  7  8  1  0  0  0  0
  7  9  1  0  0  0  0
  7 16  1  0  0  0  0
  8 17  1  6  0  0  0
  9 10  1  0  0  0  0
  9 18  1  0  0  0  0
  9 19  1  0  0  0  0
 10 12  1  0  0  0  0
 10 20  1  1  0  0  0
 11 13  1  0  0  0  0
 11 14  1  0  0  0  0
 12 15  1  0  0  0  0
 12 21  1  0  0  0  0
 13 22  1  0  0  0  0
 13 23  1  0  0  0  0
 13 24  1  0  0  0  0
 14 25  1  0  0  0  0
 14 26  1  0  0  0  0
 14 27  1  0  0  0  0
M  END
> <PUBCHEM_COMPOUND_CID>
58978905

> <PUBCHEM_COMPOUND_CANONICALIZED>
1

> <PUBCHEM_CACTVS_COMPLEXITY>
276

> <PUBCHEM_CACTVS_HBOND_ACCEPTOR>
6

> <PUBCHEM_CACTVS_HBOND_DONOR>
2

> <PUBCHEM_CACTVS_ROTATABLE_BOND>
2

> <PUBCHEM_CACTVS_SUBSKEYS>
AAADccBwOAAAAAAAAAAAAAAAAAAAASJAAAAAAAAAAAASAAAAAAAAGgAACAAACBSwgAMCCAAABgAIAACQCAIAAAAAAAAAAAFAAAAREBYAAAAiQAAFIAAHAAHIbAxAAAAAAAAAAAAAAAAAAAAAAAAAAAAAAA==

> <PUBCHEM_IUPAC_OPENEYE_NAME>
(2S)-2-[(3aR,5S)-2,2-dimethyl-3a,5,6,6a-tetrahydrofuro[2,3-d][1,3]dioxol-5-yl]-2-hydroxy-acetic acid

> <PUBCHEM_IUPAC_CAS_NAME>
(2S)-2-[(3aR,5S)-2,2-dimethyl-3a,5,6,6a-tetrahydrofuro[2,3-d][1,3]dioxol-5-yl]-2-hydroxyacetic acid

> <PUBCHEM_IUPAC_NAME_MARKUP>
(2<I>S</I>)-2-[(3<I>a</I><I>R</I>,5<I>S</I>)-2,2-dimethyl-3<I>a</I>,5,6,6<I>a</I>-tetrahydrofuro[2,3-d][1,3]dioxol-5-yl]-2-hydroxyacetic acid

> <PUBCHEM_IUPAC_NAME>
(2S)-2-[(3aR,5S)-2,2-dimethyl-3a,5,6,6a-tetrahydrofuro[2,3-d][1,3]dioxol-5-yl]-2-hydroxyacetic acid

> <PUBCHEM_IUPAC_SYSTEMATIC_NAME>
(2S)-2-[(3aR,5S)-2,2-dimethyl-3a,5,6,6a-tetrahydrofuro[2,3-d][1,3]dioxol-5-yl]-2-oxidanyl-ethanoic acid

> <PUBCHEM_IUPAC_TRADITIONAL_NAME>
(2S)-2-[(3aR,5S)-2,2-dimethyl-3a,5,6,6a-tetrahydrofuro[2,3-d][1,3]dioxol-5-yl]-2-hydroxy-acetic acid

> <PUBCHEM_IUPAC_INCHI>
InChI=1S/C9H14O6/c1-9(2)14-5-3-4(6(10)7(11)12)13-8(5)15-9/h4-6,8,10H,3H2,1-2H3,(H,11,12)/t4-,5?,6-,8+/m0/s1

> <PUBCHEM_IUPAC_INCHIKEY>
KZIYLYJLGOOOJX-VLTWBZHXSA-N

> <PUBCHEM_XLOGP3_AA>
-0.4

> <PUBCHEM_EXACT_MASS>
218.07903816

> <PUBCHEM_MOLECULAR_FORMULA>
C9H14O6

> <PUBCHEM_MOLECULAR_WEIGHT>
218.20

> <PUBCHEM_OPENEYE_CAN_SMILES>
CC1(OC2CC(OC2O1)C(C(=O)O)O)C

> <PUBCHEM_OPENEYE_ISO_SMILES>
CC1(O[C@@H]2C(O1)C[C@H](O2)[C@@H](C(=O)O)O)C

> <PUBCHEM_CACTVS_TPSA>
85.2

> <PUBCHEM_MONOISOTOPIC_WEIGHT>
218.07903816

> <PUBCHEM_TOTAL_CHARGE>
0

> <PUBCHEM_HEAVY_ATOM_COUNT>
15

> <PUBCHEM_ATOM_DEF_STEREO_COUNT>
3

> <PUBCHEM_ATOM_UDEF_STEREO_COUNT>
1

> <PUBCHEM_BOND_DEF_STEREO_COUNT>
0

> <PUBCHEM_BOND_UDEF_STEREO_COUNT>
0

> <PUBCHEM_ISOTOPIC_ATOM_COUNT>
0

> <PUBCHEM_COMPONENT_COUNT>
1

> <PUBCHEM_CACTVS_TAUTO_COUNT>
-1

> <PUBCHEM_COORDINATE_TYPE>
1
5
255

> <PUBCHEM_BONDANNOTATIONS>
10  20  5
12  4  6
7  9  3
8  17  6

$$$$
