 
  -OEChem-10192103312D

 71 70  0     1  0  0  0  0  0999 V2000
    4.7690   -3.5801    0.0000 O   0  0  0  0  0  0  0  0  0  0  0  0
    6.0010   -3.7141    0.0000 O   0  0  0  0  0  0  0  0  0  0  0  0
    2.5369   -2.7141    0.0000 O   0  0  0  0  0  0  0  0  0  0  0  0
    5.2690   -0.9821    0.0000 O   0  0  0  0  0  0  0  0  0  0  0  0
    3.4030   -4.2141    0.0000 O   0  0  0  0  0  0  0  0  0  0  0  0
    9.4651   -3.7141    0.0000 O   0  0  0  0  0  0  0  0  0  0  0  0
   10.3312   -1.2141    0.0000 O   0  0  0  0  0  0  0  0  0  0  0  0
    5.2690    2.4820    0.0000 O   0  0  0  0  0  0  0  0  0  0  0  0
    2.7690    3.3481    0.0000 O   0  0  0  0  0  0  0  0  0  0  0  0
    9.4651   -2.7141    0.0000 N   0  0  0  0  0  0  0  0  0  0  0  0
    4.2690    2.4820    0.0000 N   0  0  0  0  0  0  0  0  0  0  0  0
    4.2690   -2.7141    0.0000 C   0  0  3  0  0  0  0  0  0  0  0  0
    5.1350   -2.2141    0.0000 C   0  0  0  0  0  0  0  0  0  0  0  0
    3.7690   -1.8481    0.0000 C   0  0  0  0  0  0  0  0  0  0  0  0
    6.8671   -2.2141    0.0000 C   0  0  0  0  0  0  0  0  0  0  0  0
    6.0010   -2.7141    0.0000 C   0  0  0  0  0  0  0  0  0  0  0  0
   12.9292   -2.7141    0.0000 C   0  0  0  0  0  0  0  0  0  0  0  0
    7.7331   -2.7141    0.0000 C   0  0  0  0  0  0  0  0  0  0  0  0
   13.7953   -2.2141    0.0000 C   0  0  0  0  0  0  0  0  0  0  0  0
   12.0632   -2.2141    0.0000 C   0  0  0  0  0  0  0  0  0  0  0  0
    4.2690   -0.9821    0.0000 C   0  0  0  0  0  0  0  0  0  0  0  0
    3.7690   -0.1160    0.0000 C   0  0  0  0  0  0  0  0  0  0  0  0
    8.5991   -2.2141    0.0000 C   0  0  0  0  0  0  0  0  0  0  0  0
   14.6613   -2.7141    0.0000 C   0  0  0  0  0  0  0  0  0  0  0  0
   11.1972   -2.7141    0.0000 C   0  0  0  0  0  0  0  0  0  0  0  0
    3.4030   -3.2141    0.0000 C   0  0  0  0  0  0  0  0  0  0  0  0
    4.2690    0.7500    0.0000 C   0  0  0  0  0  0  0  0  0  0  0  0
   15.5273   -2.2141    0.0000 C   0  0  0  0  0  0  0  0  0  0  0  0
   10.3312   -2.2141    0.0000 C   0  0  0  0  0  0  0  0  0  0  0  0
    3.7690    1.6160    0.0000 C   0  0  0  0  0  0  0  0  0  0  0  0
   16.3933   -2.7141    0.0000 C   0  0  0  0  0  0  0  0  0  0  0  0
    3.7690    3.3481    0.0000 C   0  0  0  0  0  0  0  0  0  0  0  0
    4.2690    4.2141    0.0000 C   0  0  0  0  0  0  0  0  0  0  0  0
    5.5335   -1.7392    0.0000 H   0  0  0  0  0  0  0  0  0  0  0  0
    4.7365   -1.7392    0.0000 H   0  0  0  0  0  0  0  0  0  0  0  0
    3.2940   -1.4495    0.0000 H   0  0  0  0  0  0  0  0  0  0  0  0
    3.2940   -2.2466    0.0000 H   0  0  0  0  0  0  0  0  0  0  0  0
    7.2656   -1.7392    0.0000 H   0  0  0  0  0  0  0  0  0  0  0  0
    6.4685   -1.7392    0.0000 H   0  0  0  0  0  0  0  0  0  0  0  0
   12.5307   -3.1890    0.0000 H   0  0  0  0  0  0  0  0  0  0  0  0
   13.3278   -3.1890    0.0000 H   0  0  0  0  0  0  0  0  0  0  0  0
    7.3346   -3.1890    0.0000 H   0  0  0  0  0  0  0  0  0  0  0  0
    8.1316   -3.1890    0.0000 H   0  0  0  0  0  0  0  0  0  0  0  0
   14.1938   -1.7392    0.0000 H   0  0  0  0  0  0  0  0  0  0  0  0
   13.3967   -1.7392    0.0000 H   0  0  0  0  0  0  0  0  0  0  0  0
   12.4617   -1.7392    0.0000 H   0  0  0  0  0  0  0  0  0  0  0  0
   11.6647   -1.7392    0.0000 H   0  0  0  0  0  0  0  0  0  0  0  0
    3.2940    0.2825    0.0000 H   0  0  0  0  0  0  0  0  0  0  0  0
    3.2940   -0.5146    0.0000 H   0  0  0  0  0  0  0  0  0  0  0  0
    8.9976   -1.7392    0.0000 H   0  0  0  0  0  0  0  0  0  0  0  0
    8.2006   -1.7392    0.0000 H   0  0  0  0  0  0  0  0  0  0  0  0
   14.2628   -3.1890    0.0000 H   0  0  0  0  0  0  0  0  0  0  0  0
   15.0598   -3.1890    0.0000 H   0  0  0  0  0  0  0  0  0  0  0  0
   10.7987   -3.1890    0.0000 H   0  0  0  0  0  0  0  0  0  0  0  0
   11.5957   -3.1890    0.0000 H   0  0  0  0  0  0  0  0  0  0  0  0
    4.7439    0.3515    0.0000 H   0  0  0  0  0  0  0  0  0  0  0  0
    4.7439    1.1485    0.0000 H   0  0  0  0  0  0  0  0  0  0  0  0
   15.9258   -1.7392    0.0000 H   0  0  0  0  0  0  0  0  0  0  0  0
   15.1288   -1.7392    0.0000 H   0  0  0  0  0  0  0  0  0  0  0  0
    4.4590   -4.1171    0.0000 H   0  0  0  0  0  0  0  0  0  0  0  0
    3.2940    2.0146    0.0000 H   0  0  0  0  0  0  0  0  0  0  0  0
    3.2940    1.2175    0.0000 H   0  0  0  0  0  0  0  0  0  0  0  0
   16.0833   -3.2510    0.0000 H   0  0  0  0  0  0  0  0  0  0  0  0
   16.9303   -3.0241    0.0000 H   0  0  0  0  0  0  0  0  0  0  0  0
   16.7033   -2.1772    0.0000 H   0  0  0  0  0  0  0  0  0  0  0  0
    2.0000   -3.0241    0.0000 H   0  0  0  0  0  0  0  0  0  0  0  0
   10.0021   -4.0241    0.0000 H   0  0  0  0  0  0  0  0  0  0  0  0
    5.5790    3.0190    0.0000 H   0  0  0  0  0  0  0  0  0  0  0  0
    4.8059    3.9041    0.0000 H   0  0  0  0  0  0  0  0  0  0  0  0
    4.5790    4.7510    0.0000 H   0  0  0  0  0  0  0  0  0  0  0  0
    3.7320    4.5241    0.0000 H   0  0  0  0  0  0  0  0  0  0  0  0
  1 12  1  0  0  0  0
  1 60  1  0  0  0  0
  2 16  2  0  0  0  0
  3 26  1  0  0  0  0
  3 66  1  0  0  0  0
  4 21  2  0  0  0  0
  5 26  2  0  0  0  0
  6 10  1  0  0  0  0
  6 67  1  0  0  0  0
  7 29  2  0  0  0  0
  8 11  1  0  0  0  0
  8 68  1  0  0  0  0
  9 32  2  0  0  0  0
 10 23  1  0  0  0  0
 10 29  1  0  0  0  0
 11 30  1  0  0  0  0
 11 32  1  0  0  0  0
 12 13  1  0  0  0  0
 12 14  1  0  0  0  0
 12 26  1  0  0  0  0
 13 16  1  0  0  0  0
 13 34  1  0  0  0  0
 13 35  1  0  0  0  0
 14 21  1  0  0  0  0
 14 36  1  0  0  0  0
 14 37  1  0  0  0  0
 15 16  1  0  0  0  0
 15 18  1  0  0  0  0
 15 38  1  0  0  0  0
 15 39  1  0  0  0  0
 17 19  1  0  0  0  0
 17 20  1  0  0  0  0
 17 40  1  0  0  0  0
 17 41  1  0  0  0  0
 18 23  1  0  0  0  0
 18 42  1  0  0  0  0
 18 43  1  0  0  0  0
 19 24  1  0  0  0  0
 19 44  1  0  0  0  0
 19 45  1  0  0  0  0
 20 25  1  0  0  0  0
 20 46  1  0  0  0  0
 20 47  1  0  0  0  0
 21 22  1  0  0  0  0
 22 27  1  0  0  0  0
 22 48  1  0  0  0  0
 22 49  1  0  0  0  0
 23 50  1  0  0  0  0
 23 51  1  0  0  0  0
 24 28  1  0  0  0  0
 24 52  1  0  0  0  0
 24 53  1  0  0  0  0
 25 29  1  0  0  0  0
 25 54  1  0  0  0  0
 25 55  1  0  0  0  0
 27 30  1  0  0  0  0
 27 56  1  0  0  0  0
 27 57  1  0  0  0  0
 28 31  1  0  0  0  0
 28 58  1  0  0  0  0
 28 59  1  0  0  0  0
 30 61  1  0  0  0  0
 30 62  1  0  0  0  0
 31 63  1  0  0  0  0
 31 64  1  0  0  0  0
 31 65  1  0  0  0  0
 32 33  1  0  0  0  0
 33 69  1  0  0  0  0
 33 70  1  0  0  0  0
 33 71  1  0  0  0  0
M  END
> <PUBCHEM_COMPOUND_CID>
122377044

> <PUBCHEM_COMPOUND_CANONICALIZED>
1

> <PUBCHEM_CACTVS_COMPLEXITY>
668

> <PUBCHEM_CACTVS_HBOND_ACCEPTOR>
9

> <PUBCHEM_CACTVS_HBOND_DONOR>
4

> <PUBCHEM_CACTVS_ROTATABLE_BOND>
19

> <PUBCHEM_CACTVS_SUBSKEYS>
AAADcfB7PAAAAAAAAAAAAAAAAAAAAAAAAAAAAAAAAAAAAAAAAAAAHgAECAAADETBgAQCCAIQAgAIAIGQGAIAAAAAAAAgAAFIAAABABYAgAAEQAAEJgCBAAGfyuCuAAAAAAAAAAAAAAAAAAAAAAAAAAAAAA==

> <PUBCHEM_IUPAC_OPENEYE_NAME>
2-[5-[acetyl(hydroxy)amino]-2-oxo-pentyl]-2-hydroxy-7-[hydroxy(octanoyl)amino]-4-oxo-heptanoic acid

> <PUBCHEM_IUPAC_CAS_NAME>
2-[5-[acetyl(hydroxy)amino]-2-oxopentyl]-2-hydroxy-7-[hydroxy(1-oxooctyl)amino]-4-oxoheptanoic acid

> <PUBCHEM_IUPAC_NAME_MARKUP>
2-[5-[acetyl(hydroxy)amino]-2-oxopentyl]-2-hydroxy-7-[hydroxy(octanoyl)amino]-4-oxoheptanoic acid

> <PUBCHEM_IUPAC_NAME>
2-[5-[acetyl(hydroxy)amino]-2-oxopentyl]-2-hydroxy-7-[hydroxy(octanoyl)amino]-4-oxoheptanoic acid

> <PUBCHEM_IUPAC_SYSTEMATIC_NAME>
2-[5-[ethanoyl(oxidanyl)amino]-2-oxidanylidene-pentyl]-7-[octanoyl(oxidanyl)amino]-2-oxidanyl-4-oxidanylidene-heptanoic acid

> <PUBCHEM_IUPAC_TRADITIONAL_NAME>
2-[5-[acetyl(hydroxy)amino]-2-keto-pentyl]-7-[caprylyl(hydroxy)amino]-2-hydroxy-4-keto-enanthic acid

> <PUBCHEM_IUPAC_INCHI>
InChI=1S/C22H38N2O9/c1-3-4-5-6-7-12-20(28)24(33)14-9-11-19(27)16-22(31,21(29)30)15-18(26)10-8-13-23(32)17(2)25/h31-33H,3-16H2,1-2H3,(H,29,30)

> <PUBCHEM_IUPAC_INCHIKEY>
YUOKDICFQCHHIO-UHFFFAOYSA-N

> <PUBCHEM_XLOGP3_AA>
-0.1

> <PUBCHEM_EXACT_MASS>
474.25773079

> <PUBCHEM_MOLECULAR_FORMULA>
C22H38N2O9

> <PUBCHEM_MOLECULAR_WEIGHT>
474.5

> <PUBCHEM_OPENEYE_CAN_SMILES>
CCCCCCCC(=O)N(CCCC(=O)CC(CC(=O)CCCN(C(=O)C)O)(C(=O)O)O)O

> <PUBCHEM_OPENEYE_ISO_SMILES>
CCCCCCCC(=O)N(CCCC(=O)CC(CC(=O)CCCN(C(=O)C)O)(C(=O)O)O)O

> <PUBCHEM_CACTVS_TPSA>
173

> <PUBCHEM_MONOISOTOPIC_WEIGHT>
474.25773079

> <PUBCHEM_TOTAL_CHARGE>
0

> <PUBCHEM_HEAVY_ATOM_COUNT>
33

> <PUBCHEM_ATOM_DEF_STEREO_COUNT>
0

> <PUBCHEM_ATOM_UDEF_STEREO_COUNT>
1

> <PUBCHEM_BOND_DEF_STEREO_COUNT>
0

> <PUBCHEM_BOND_UDEF_STEREO_COUNT>
0

> <PUBCHEM_ISOTOPIC_ATOM_COUNT>
0

> <PUBCHEM_COMPONENT_COUNT>
1

> <PUBCHEM_CACTVS_TAUTO_COUNT>
-1

> <PUBCHEM_COORDINATE_TYPE>
1
5
255

> <PUBCHEM_BONDANNOTATIONS>
12  1  3

$$$$
