 
  -OEChem-10192103312D

 47 49  0     1  0  0  0  0  0999 V2000
    9.5945    1.8488    0.0000 O   0  0  0  0  0  0  0  0  0  0  0  0
    7.8167    1.8592    0.0000 O   0  0  0  0  0  0  0  0  0  0  0  0
    9.5984   -1.1995    0.0000 O   0  0  0  0  0  0  0  0  0  0  0  0
    6.0682    1.8246    0.0000 O   0  0  0  0  0  0  0  0  0  0  0  0
    6.0682   -2.1754    0.0000 O   0  0  0  0  0  0  0  0  0  0  0  0
    4.3198    1.8592    0.0000 O   0  0  0  0  0  0  0  0  0  0  0  0
    2.5381   -1.1995    0.0000 O   0  0  0  0  0  0  0  0  0  0  0  0
    9.5984    0.8488    0.0000 C   0  0  3  0  0  0  0  0  0  0  0  0
   10.4663    0.3521    0.0000 C   0  0  0  0  0  0  0  0  0  0  0  0
   11.3304    0.8554    0.0000 C   0  0  0  0  0  0  0  0  0  0  0  0
    8.7343    0.3454    0.0000 C   0  0  0  0  0  0  0  0  0  0  0  0
   12.1984    0.3588    0.0000 C   0  0  0  0  0  0  0  0  0  0  0  0
    6.9343    0.3246    0.0000 C   0  0  0  0  0  0  0  0  0  0  0  0
    7.8282    0.8593    0.0000 C   0  0  0  0  0  0  0  0  0  0  0  0
    6.9343   -0.6754    0.0000 C   0  0  0  0  0  0  0  0  0  0  0  0
    8.7343   -0.6962    0.0000 C   0  0  0  0  0  0  0  0  0  0  0  0
   13.0625    0.8621    0.0000 C   0  0  0  0  0  0  0  0  0  0  0  0
    7.8282   -1.2100    0.0000 C   0  0  0  0  0  0  0  0  0  0  0  0
    6.0682    0.8246    0.0000 C   0  0  0  0  0  0  0  0  0  0  0  0
    5.2022    0.3246    0.0000 C   0  0  0  0  0  0  0  0  0  0  0  0
    5.2022   -0.6754    0.0000 C   0  0  0  0  0  0  0  0  0  0  0  0
    6.0682   -1.1754    0.0000 C   0  0  0  0  0  0  0  0  0  0  0  0
    4.3083    0.8593    0.0000 C   0  0  0  0  0  0  0  0  0  0  0  0
   13.9304    0.3655    0.0000 C   0  0  0  0  0  0  0  0  0  0  0  0
    4.3083   -1.2100    0.0000 C   0  0  0  0  0  0  0  0  0  0  0  0
    3.4022   -0.6962    0.0000 C   0  0  0  0  0  0  0  0  0  0  0  0
    3.4022    0.3454    0.0000 C   0  0  0  0  0  0  0  0  0  0  0  0
    9.0602    1.1567    0.0000 H   0  0  0  0  0  0  0  0  0  0  0  0
   10.0696   -0.1244    0.0000 H   0  0  0  0  0  0  0  0  0  0  0  0
   10.8667   -0.1213    0.0000 H   0  0  0  0  0  0  0  0  0  0  0  0
   11.7271    1.3319    0.0000 H   0  0  0  0  0  0  0  0  0  0  0  0
   10.9301    1.3288    0.0000 H   0  0  0  0  0  0  0  0  0  0  0  0
   11.8017   -0.1177    0.0000 H   0  0  0  0  0  0  0  0  0  0  0  0
   12.5987   -0.1146    0.0000 H   0  0  0  0  0  0  0  0  0  0  0  0
    7.8210   -1.8300    0.0000 H   0  0  0  0  0  0  0  0  0  0  0  0
   13.4591    1.3386    0.0000 H   0  0  0  0  0  0  0  0  0  0  0  0
   12.6621    1.3355    0.0000 H   0  0  0  0  0  0  0  0  0  0  0  0
   10.1303    2.1608    0.0000 H   0  0  0  0  0  0  0  0  0  0  0  0
   13.6225   -0.1727    0.0000 H   0  0  0  0  0  0  0  0  0  0  0  0
   14.4685    0.0575    0.0000 H   0  0  0  0  0  0  0  0  0  0  0  0
   14.2383    0.9036    0.0000 H   0  0  0  0  0  0  0  0  0  0  0  0
    4.3154   -1.8300    0.0000 H   0  0  0  0  0  0  0  0  0  0  0  0
    8.3500    2.1754    0.0000 H   0  0  0  0  0  0  0  0  0  0  0  0
    2.8665    0.6575    0.0000 H   0  0  0  0  0  0  0  0  0  0  0  0
    9.5960   -1.8195    0.0000 H   0  0  0  0  0  0  0  0  0  0  0  0
    3.7865    2.1754    0.0000 H   0  0  0  0  0  0  0  0  0  0  0  0
    2.0000   -0.8916    0.0000 H   0  0  0  0  0  0  0  0  0  0  0  0
  1  8  1  0  0  0  0
  1 38  1  0  0  0  0
  2 14  1  0  0  0  0
  2 43  1  0  0  0  0
  3 16  1  0  0  0  0
  3 45  1  0  0  0  0
  4 19  2  0  0  0  0
  5 22  2  0  0  0  0
  6 23  1  0  0  0  0
  6 46  1  0  0  0  0
  7 26  1  0  0  0  0
  7 47  1  0  0  0  0
  8  9  1  0  0  0  0
  8 11  1  0  0  0  0
  8 28  1  0  0  0  0
  9 10  1  0  0  0  0
  9 29  1  0  0  0  0
  9 30  1  0  0  0  0
 10 12  1  0  0  0  0
 10 31  1  0  0  0  0
 10 32  1  0  0  0  0
 11 14  1  0  0  0  0
 11 16  2  0  0  0  0
 12 17  1  0  0  0  0
 12 33  1  0  0  0  0
 12 34  1  0  0  0  0
 13 14  2  0  0  0  0
 13 15  1  0  0  0  0
 13 19  1  0  0  0  0
 15 18  2  0  0  0  0
 15 22  1  0  0  0  0
 16 18  1  0  0  0  0
 17 24  1  0  0  0  0
 17 36  1  0  0  0  0
 17 37  1  0  0  0  0
 18 35  1  0  0  0  0
 19 20  1  0  0  0  0
 20 21  2  0  0  0  0
 20 23  1  0  0  0  0
 21 22  1  0  0  0  0
 21 25  1  0  0  0  0
 23 27  2  0  0  0  0
 24 39  1  0  0  0  0
 24 40  1  0  0  0  0
 24 41  1  0  0  0  0
 25 26  2  0  0  0  0
 25 42  1  0  0  0  0
 26 27  1  0  0  0  0
 27 44  1  0  0  0  0
M  END
> <PUBCHEM_COMPOUND_CID>
22049

> <PUBCHEM_COMPOUND_CANONICALIZED>
1

> <PUBCHEM_CACTVS_COMPLEXITY>
565

> <PUBCHEM_CACTVS_HBOND_ACCEPTOR>
7

> <PUBCHEM_CACTVS_HBOND_DONOR>
5

> <PUBCHEM_CACTVS_ROTATABLE_BOND>
5

> <PUBCHEM_CACTVS_SUBSKEYS>
AAADceB4OAAAAAAAAAAAAAAAAAAAAAAAAAAwYMAAAAAAAADBQAAAGgAACAAADBSgmAIyBoAAAgCIAqBSAAACAAAkIAAAiAEGCMgINzaCFRKAcUAl4BUImYeL7PTO4AADCAAYAADAAAYQADAAAAAAAAAAAA==

> <PUBCHEM_IUPAC_OPENEYE_NAME>
1,3,6,8-tetrahydroxy-2-(1-hydroxyhexyl)anthracene-9,10-dione

> <PUBCHEM_IUPAC_CAS_NAME>
1,3,6,8-tetrahydroxy-2-(1-hydroxyhexyl)anthracene-9,10-dione

> <PUBCHEM_IUPAC_NAME_MARKUP>
1,3,6,8-tetrahydroxy-2-(1-hydroxyhexyl)anthracene-9,10-dione

> <PUBCHEM_IUPAC_NAME>
1,3,6,8-tetrahydroxy-2-(1-hydroxyhexyl)anthracene-9,10-dione

> <PUBCHEM_IUPAC_SYSTEMATIC_NAME>
1,3,6,8-tetrakis(oxidanyl)-2-(1-oxidanylhexyl)anthracene-9,10-dione

> <PUBCHEM_IUPAC_TRADITIONAL_NAME>
1,3,6,8-tetrahydroxy-2-(1-hydroxyhexyl)-9,10-anthraquinone

> <PUBCHEM_IUPAC_INCHI>
InChI=1S/C20H20O7/c1-2-3-4-5-12(22)17-14(24)8-11-16(20(17)27)19(26)15-10(18(11)25)6-9(21)7-13(15)23/h6-8,12,21-24,27H,2-5H2,1H3

> <PUBCHEM_IUPAC_INCHIKEY>
WGPOPPKSQRZUTP-UHFFFAOYSA-N

> <PUBCHEM_XLOGP3_AA>
4

> <PUBCHEM_EXACT_MASS>
372.12090297

> <PUBCHEM_MOLECULAR_FORMULA>
C20H20O7

> <PUBCHEM_MOLECULAR_WEIGHT>
372.4

> <PUBCHEM_OPENEYE_CAN_SMILES>
CCCCCC(C1=C(C=C2C(=C1O)C(=O)C3=C(C2=O)C=C(C=C3O)O)O)O

> <PUBCHEM_OPENEYE_ISO_SMILES>
CCCCCC(C1=C(C=C2C(=C1O)C(=O)C3=C(C2=O)C=C(C=C3O)O)O)O

> <PUBCHEM_CACTVS_TPSA>
135

> <PUBCHEM_MONOISOTOPIC_WEIGHT>
372.12090297

> <PUBCHEM_TOTAL_CHARGE>
0

> <PUBCHEM_HEAVY_ATOM_COUNT>
27

> <PUBCHEM_ATOM_DEF_STEREO_COUNT>
0

> <PUBCHEM_ATOM_UDEF_STEREO_COUNT>
1

> <PUBCHEM_BOND_DEF_STEREO_COUNT>
0

> <PUBCHEM_BOND_UDEF_STEREO_COUNT>
0

> <PUBCHEM_ISOTOPIC_ATOM_COUNT>
0

> <PUBCHEM_COMPONENT_COUNT>
1

> <PUBCHEM_CACTVS_TAUTO_COUNT>
135

> <PUBCHEM_COORDINATE_TYPE>
1
5
255

> <PUBCHEM_BONDANNOTATIONS>
8  1  3
11  14  8
11  16  8
13  14  8
13  15  8
15  18  8
16  18  8
20  21  8
20  23  8
21  25  8
23  27  8
25  26  8
26  27  8

$$$$
