 
  -OEChem-10192104202D

 34 36  0     1  0  0  0  0  0999 V2000
    5.2221   -0.8898    0.0000 O   0  0  0  0  0  0  0  0  0  0  0  0
    8.2908   -0.8898    0.0000 O   0  0  0  0  0  0  0  0  0  0  0  0
    8.0178    0.8655    0.0000 O   0  0  0  0  0  0  0  0  0  0  0  0
    8.0178   -2.6450    0.0000 O   0  0  0  0  0  0  0  0  0  0  0  0
    3.1215    1.8872    0.0000 O   0  0  0  0  0  0  0  0  0  0  0  0
    4.6160    2.8578    0.0000 O   0  0  0  0  0  0  0  0  0  0  0  0
    2.0000    0.5023    0.0000 O   0  0  0  0  0  0  0  0  0  0  0  0
    6.7609   -0.3898    0.0000 C   0  0  3  0  0  0  0  0  0  0  0  0
    6.7609   -1.3898    0.0000 C   0  0  3  0  0  0  0  0  0  0  0  0
    5.8099   -0.0808    0.0000 C   0  0  3  0  0  0  0  0  0  0  0  0
    5.8099   -1.6988    0.0000 C   0  0  3  0  0  0  0  0  0  0  0  0
    5.5009    0.8703    0.0000 C   0  0  0  0  0  0  0  0  0  0  0  0
    4.5227    1.0782    0.0000 C   0  0  3  0  0  0  0  0  0  0  0  0
    7.7072   -0.0851    0.0000 C   0  0  0  0  0  0  0  0  0  0  0  0
    5.5009   -2.6499    0.0000 C   0  0  0  0  0  0  0  0  0  0  0  0
    7.7072   -1.6945    0.0000 C   0  0  0  0  0  0  0  0  0  0  0  0
    3.7796    0.4091    0.0000 C   0  0  0  0  0  0  0  0  0  0  0  0
    4.5227   -2.8578    0.0000 C   0  0  0  0  0  0  0  0  0  0  0  0
    4.1160    1.9918    0.0000 C   0  0  0  0  0  0  0  0  0  0  0  0
    2.9136    0.9091    0.0000 C   0  0  0  0  0  0  0  0  0  0  0  0
    6.7617    0.2302    0.0000 H   0  0  0  0  0  0  0  0  0  0  0  0
    6.7617   -2.0098    0.0000 H   0  0  0  0  0  0  0  0  0  0  0  0
    5.1975    0.0162    0.0000 H   0  0  0  0  0  0  0  0  0  0  0  0
    5.1975   -1.7958    0.0000 H   0  0  0  0  0  0  0  0  0  0  0  0
    6.1148    0.9566    0.0000 H   0  0  0  0  0  0  0  0  0  0  0  0
    5.5225    1.4899    0.0000 H   0  0  0  0  0  0  0  0  0  0  0  0
    4.6832    0.4793    0.0000 H   0  0  0  0  0  0  0  0  0  0  0  0
    5.5225   -3.2695    0.0000 H   0  0  0  0  0  0  0  0  0  0  0  0
    6.1148   -2.7362    0.0000 H   0  0  0  0  0  0  0  0  0  0  0  0
    3.4151   -0.0925    0.0000 H   0  0  0  0  0  0  0  0  0  0  0  0
    4.2403   -0.0058    0.0000 H   0  0  0  0  0  0  0  0  0  0  0  0
    4.3938   -2.2513    0.0000 H   0  0  0  0  0  0  0  0  0  0  0  0
    3.9163   -2.9867    0.0000 H   0  0  0  0  0  0  0  0  0  0  0  0
    4.6516   -3.4642    0.0000 H   0  0  0  0  0  0  0  0  0  0  0  0
  1 10  1  0  0  0  0
  1 11  1  0  0  0  0
  2 14  1  0  0  0  0
  2 16  1  0  0  0  0
  3 14  2  0  0  0  0
  4 16  2  0  0  0  0
  5 19  1  0  0  0  0
  5 20  1  0  0  0  0
  6 19  2  0  0  0  0
  7 20  2  0  0  0  0
  8  9  1  0  0  0  0
  8 10  1  0  0  0  0
  8 14  1  0  0  0  0
  8 21  1  0  0  0  0
  9 11  1  0  0  0  0
  9 16  1  0  0  0  0
  9 22  1  0  0  0  0
 10 12  1  0  0  0  0
 10 23  1  0  0  0  0
 11 15  1  0  0  0  0
 11 24  1  0  0  0  0
 12 13  1  0  0  0  0
 12 25  1  0  0  0  0
 12 26  1  0  0  0  0
 13 17  1  0  0  0  0
 13 19  1  0  0  0  0
 13 27  1  0  0  0  0
 15 18  1  0  0  0  0
 15 28  1  0  0  0  0
 15 29  1  0  0  0  0
 17 20  1  0  0  0  0
 17 30  1  0  0  0  0
 17 31  1  0  0  0  0
 18 32  1  0  0  0  0
 18 33  1  0  0  0  0
 18 34  1  0  0  0  0
M  END
> <PUBCHEM_COMPOUND_CID>
10076898

> <PUBCHEM_COMPOUND_CANONICALIZED>
1

> <PUBCHEM_CACTVS_COMPLEXITY>
497

> <PUBCHEM_CACTVS_HBOND_ACCEPTOR>
7

> <PUBCHEM_CACTVS_HBOND_DONOR>
0

> <PUBCHEM_CACTVS_ROTATABLE_BOND>
3

> <PUBCHEM_CACTVS_SUBSKEYS>
AAADccBwOAAAAAAAAAAAAAAAAAAAASJEgAAAAAAAAAASAAAAAAAAGgAAAAAADRSggAICCAAABAAIAACQCAAAAAAAAAAAAAEAAAAAABYAAAACAAAFIAAAAAHL7PzOgAAAAAAAAAAAAAAAAAAAAAAAAAAAAA==

> <PUBCHEM_IUPAC_OPENEYE_NAME>
3-[(2,5-dioxotetrahydrofuran-3-yl)methyl]-1-ethyl-1,3,3a,6a-tetrahydrofuro[3,4-c]furan-4,6-dione

> <PUBCHEM_IUPAC_CAS_NAME>
3-[(2,5-dioxo-3-oxolanyl)methyl]-1-ethyl-1,3,3a,6a-tetrahydrofuro[3,4-c]furan-4,6-dione

> <PUBCHEM_IUPAC_NAME_MARKUP>
3-[(2,5-dioxooxolan-3-yl)methyl]-1-ethyl-1,3,3<I>a</I>,6<I>a</I>-tetrahydrofuro[3,4-c]furan-4,6-dione

> <PUBCHEM_IUPAC_NAME>
3-[(2,5-dioxooxolan-3-yl)methyl]-1-ethyl-1,3,3a,6a-tetrahydrofuro[3,4-c]furan-4,6-dione

> <PUBCHEM_IUPAC_SYSTEMATIC_NAME>
3-[[2,5-bis(oxidanylidene)oxolan-3-yl]methyl]-1-ethyl-1,3,3a,6a-tetrahydrofuro[3,4-c]furan-4,6-dione

> <PUBCHEM_IUPAC_TRADITIONAL_NAME>
3-[(2,5-diketotetrahydrofuran-3-yl)methyl]-1-ethyl-1,3,3a,6a-tetrahydrofuro[3,4-c]furan-4,6-quinone

> <PUBCHEM_IUPAC_INCHI>
InChI=1S/C13H14O7/c1-2-6-9-10(13(17)20-12(9)16)7(18-6)3-5-4-8(14)19-11(5)15/h5-7,9-10H,2-4H2,1H3

> <PUBCHEM_IUPAC_INCHIKEY>
QCCIYLCXBRHJJX-UHFFFAOYSA-N

> <PUBCHEM_XLOGP3_AA>
0

> <PUBCHEM_EXACT_MASS>
282.07395278

> <PUBCHEM_MOLECULAR_FORMULA>
C13H14O7

> <PUBCHEM_MOLECULAR_WEIGHT>
282.25

> <PUBCHEM_OPENEYE_CAN_SMILES>
CCC1C2C(C(O1)CC3CC(=O)OC3=O)C(=O)OC2=O

> <PUBCHEM_OPENEYE_ISO_SMILES>
CCC1C2C(C(O1)CC3CC(=O)OC3=O)C(=O)OC2=O

> <PUBCHEM_CACTVS_TPSA>
96

> <PUBCHEM_MONOISOTOPIC_WEIGHT>
282.07395278

> <PUBCHEM_TOTAL_CHARGE>
0

> <PUBCHEM_HEAVY_ATOM_COUNT>
20

> <PUBCHEM_ATOM_DEF_STEREO_COUNT>
0

> <PUBCHEM_ATOM_UDEF_STEREO_COUNT>
5

> <PUBCHEM_BOND_DEF_STEREO_COUNT>
0

> <PUBCHEM_BOND_UDEF_STEREO_COUNT>
0

> <PUBCHEM_ISOTOPIC_ATOM_COUNT>
0

> <PUBCHEM_COMPONENT_COUNT>
1

> <PUBCHEM_CACTVS_TAUTO_COUNT>
-1

> <PUBCHEM_COORDINATE_TYPE>
1
5
255

> <PUBCHEM_BONDANNOTATIONS>
10  12  3
11  15  3
13  12  3
8  14  3
9  16  3

$$$$
