 
  -OEChem-10192104162D

 70 75  0     1  0  0  0  0  0999 V2000
    8.0524   -0.9262    0.0000 S   0  0  0  0  0  0  0  0  0  0  0  0
    5.8055   -3.0046    0.0000 O   0  0  0  0  0  0  0  0  0  0  0  0
    9.4012    2.3174    0.0000 O   0  0  0  0  0  0  0  0  0  0  0  0
    5.1095   -1.0354    0.0000 O   0  0  0  0  0  0  0  0  0  0  0  0
    6.8774    1.7459    0.0000 O   0  0  0  0  0  0  0  0  0  0  0  0
    9.0471   -0.8234    0.0000 O   0  0  0  0  0  0  0  0  0  0  0  0
    7.0577   -1.0290    0.0000 O   0  0  0  0  0  0  0  0  0  0  0  0
    4.2690   -7.5699    0.0000 O   0  0  0  0  0  0  0  0  0  0  0  0
   10.3803    7.3173    0.0000 O   0  0  0  0  0  0  0  0  0  0  0  0
    8.1552   -1.9209    0.0000 N   0  0  0  0  0  0  0  0  0  0  0  0
    6.0812   -4.7652    0.0000 N   0  0  0  0  0  0  0  0  0  0  0  0
    7.9496    0.0685    0.0000 N   0  0  0  0  0  0  0  0  0  0  0  0
    9.4975    4.0968    0.0000 N   0  0  0  0  0  0  0  0  0  0  0  0
    6.0812   -6.3747    0.0000 N   0  0  0  0  0  0  0  0  0  0  0  0
    4.2690   -4.5699    0.0000 N   0  0  0  0  0  0  0  0  0  0  0  0
   10.6973    5.1696    0.0000 N   0  0  0  0  0  0  0  0  0  0  0  0
    3.4030   -6.0699    0.0000 N   0  0  0  0  0  0  0  0  0  0  0  0
    8.1440    5.3176    0.0000 N   0  0  0  0  0  0  0  0  0  0  0  0
    8.6849    6.9630    0.0000 N   0  0  0  0  0  0  0  0  0  0  0  0
    2.5369   -4.5699    0.0000 N   0  0  0  0  0  0  0  0  0  0  0  0
    6.9895    6.6088    0.0000 N   0  0  0  0  0  0  0  0  0  0  0  0
    7.3452   -2.5073    0.0000 C   0  0  1  0  0  0  0  0  0  0  0  0
    7.3435   -3.5073    0.0000 C   0  0  2  0  0  0  0  0  0  0  0  0
    6.3919   -3.8147    0.0000 C   0  0  1  0  0  0  0  0  0  0  0  0
    6.3947   -2.1966    0.0000 C   0  0  1  0  0  0  0  0  0  0  0  0
    8.1515   -4.0965    0.0000 C   0  0  0  0  0  0  0  0  0  0  0  0
    6.0873   -1.2450    0.0000 C   0  0  0  0  0  0  0  0  0  0  0  0
    8.6569    1.6496    0.0000 C   0  0  1  0  0  0  0  0  0  0  0  0
    7.7917    2.1511    0.0000 C   0  0  2  0  0  0  0  0  0  0  0  0
    8.0013    3.1288    0.0000 C   0  0  0  0  0  0  0  0  0  0  0  0
    8.9960    3.2317    0.0000 C   0  0  1  0  0  0  0  0  0  0  0  0
    8.7597    0.6549    0.0000 C   0  0  0  0  0  0  0  0  0  0  0  0
    5.1350   -5.0699    0.0000 C   0  0  0  0  0  0  0  0  0  0  0  0
    6.6648   -5.5699    0.0000 C   0  0  0  0  0  0  0  0  0  0  0  0
    5.1350   -6.0699    0.0000 C   0  0  0  0  0  0  0  0  0  0  0  0
    9.0940    5.0053    0.0000 C   0  0  0  0  0  0  0  0  0  0  0  0
   10.4864    4.1982    0.0000 C   0  0  0  0  0  0  0  0  0  0  0  0
    4.2690   -6.5699    0.0000 C   0  0  0  0  0  0  0  0  0  0  0  0
    9.8394    5.6719    0.0000 C   0  0  0  0  0  0  0  0  0  0  0  0
    3.4030   -5.0699    0.0000 C   0  0  0  0  0  0  0  0  0  0  0  0
    9.6349    6.6507    0.0000 C   0  0  0  0  0  0  0  0  0  0  0  0
    7.9394    6.2965    0.0000 C   0  0  0  0  0  0  0  0  0  0  0  0
    7.2493   -1.8948    0.0000 H   0  0  0  0  0  0  0  0  0  0  0  0
    7.2454   -4.1195    0.0000 H   0  0  0  0  0  0  0  0  0  0  0  0
    5.7794   -3.9106    0.0000 H   0  0  0  0  0  0  0  0  0  0  0  0
    5.7825   -2.0986    0.0000 H   0  0  0  0  0  0  0  0  0  0  0  0
    8.7212   -2.1741    0.0000 H   0  0  0  0  0  0  0  0  0  0  0  0
    7.7862   -4.5974    0.0000 H   0  0  0  0  0  0  0  0  0  0  0  0
    8.6524   -4.4618    0.0000 H   0  0  0  0  0  0  0  0  0  0  0  0
    8.5168   -3.5955    0.0000 H   0  0  0  0  0  0  0  0  0  0  0  0
    6.7014   -1.1598    0.0000 H   0  0  0  0  0  0  0  0  0  0  0  0
    6.1100   -0.6255    0.0000 H   0  0  0  0  0  0  0  0  0  0  0  0
    9.2353    1.4264    0.0000 H   0  0  0  0  0  0  0  0  0  0  0  0
    7.3105    2.5421    0.0000 H   0  0  0  0  0  0  0  0  0  0  0  0
    8.0024    3.7488    0.0000 H   0  0  0  0  0  0  0  0  0  0  0  0
    7.3848    3.1947    0.0000 H   0  0  0  0  0  0  0  0  0  0  0  0
    9.6151    3.1981    0.0000 H   0  0  0  0  0  0  0  0  0  0  0  0
    9.0305    0.0971    0.0000 H   0  0  0  0  0  0  0  0  0  0  0  0
    9.3559    0.8247    0.0000 H   0  0  0  0  0  0  0  0  0  0  0  0
    7.3837    0.3216    0.0000 H   0  0  0  0  0  0  0  0  0  0  0  0
    7.2848   -5.5699    0.0000 H   0  0  0  0  0  0  0  0  0  0  0  0
    4.9190   -0.4455    0.0000 H   0  0  0  0  0  0  0  0  0  0  0  0
    6.3765    2.1112    0.0000 H   0  0  0  0  0  0  0  0  0  0  0  0
   10.8997    3.7360    0.0000 H   0  0  0  0  0  0  0  0  0  0  0  0
    2.8660   -6.3799    0.0000 H   0  0  0  0  0  0  0  0  0  0  0  0
    8.5581    7.5699    0.0000 H   0  0  0  0  0  0  0  0  0  0  0  0
    2.0000   -4.8799    0.0000 H   0  0  0  0  0  0  0  0  0  0  0  0
    2.5369   -3.9499    0.0000 H   0  0  0  0  0  0  0  0  0  0  0  0
    6.8627    7.2157    0.0000 H   0  0  0  0  0  0  0  0  0  0  0  0
    6.5273    6.1955    0.0000 H   0  0  0  0  0  0  0  0  0  0  0  0
  1  6  2  0  0  0  0
  1  7  2  0  0  0  0
  1 10  1  0  0  0  0
  1 12  1  0  0  0  0
  2 24  1  0  0  0  0
  2 25  1  0  0  0  0
  3 28  1  0  0  0  0
  3 31  1  0  0  0  0
  4 27  1  0  0  0  0
  4 62  1  0  0  0  0
 29  5  1  1  0  0  0
  5 63  1  0  0  0  0
  8 38  2  0  0  0  0
  9 41  2  0  0  0  0
 22 10  1  1  0  0  0
 10 47  1  0  0  0  0
 24 11  1  6  0  0  0
 11 33  1  0  0  0  0
 11 34  1  0  0  0  0
 12 32  1  0  0  0  0
 12 60  1  0  0  0  0
 31 13  1  6  0  0  0
 13 36  1  0  0  0  0
 13 37  1  0  0  0  0
 14 34  2  0  0  0  0
 14 35  1  0  0  0  0
 15 33  1  0  0  0  0
 15 40  2  0  0  0  0
 16 37  2  0  0  0  0
 16 39  1  0  0  0  0
 17 38  1  0  0  0  0
 17 40  1  0  0  0  0
 17 65  1  0  0  0  0
 18 36  1  0  0  0  0
 18 42  2  0  0  0  0
 19 41  1  0  0  0  0
 19 42  1  0  0  0  0
 19 66  1  0  0  0  0
 20 40  1  0  0  0  0
 20 67  1  0  0  0  0
 20 68  1  0  0  0  0
 21 42  1  0  0  0  0
 21 69  1  0  0  0  0
 21 70  1  0  0  0  0
 22 23  1  0  0  0  0
 22 25  1  0  0  0  0
 22 43  1  0  0  0  0
 23 24  1  0  0  0  0
 23 26  1  1  0  0  0
 23 44  1  0  0  0  0
 24 45  1  0  0  0  0
 25 27  1  6  0  0  0
 25 46  1  0  0  0  0
 26 48  1  0  0  0  0
 26 49  1  0  0  0  0
 26 50  1  0  0  0  0
 27 51  1  0  0  0  0
 27 52  1  0  0  0  0
 28 29  1  0  0  0  0
 28 32  1  6  0  0  0
 28 53  1  0  0  0  0
 29 30  1  0  0  0  0
 29 54  1  0  0  0  0
 30 31  1  0  0  0  0
 30 55  1  0  0  0  0
 30 56  1  0  0  0  0
 31 57  1  0  0  0  0
 32 58  1  0  0  0  0
 32 59  1  0  0  0  0
 33 35  2  0  0  0  0
 34 61  1  0  0  0  0
 35 38  1  0  0  0  0
 36 39  2  0  0  0  0
 37 64  1  0  0  0  0
 39 41  1  0  0  0  0
M  END
> <PUBCHEM_COMPOUND_CID>
137213073

> <PUBCHEM_COMPOUND_CANONICALIZED>
1

> <PUBCHEM_CACTVS_COMPLEXITY>
1260

> <PUBCHEM_CACTVS_HBOND_ACCEPTOR>
14

> <PUBCHEM_CACTVS_HBOND_DONOR>
8

> <PUBCHEM_CACTVS_ROTATABLE_BOND>
8

> <PUBCHEM_CACTVS_SUBSKEYS>
AAADceB7/ABAAAAAAAAAAAAAAAAAAWLEiQAgQAAAAAAAAEAB4AAAHgAQSAAADTzhlgYHsBfMFgCoAQdxdDCAgC0XEKABUIGoVECDWApAyCAfQIgPEQLDAGCwMAIMAAAAAAAAAAAAAAAAAAAAAAAAAAAAAA==

> <PUBCHEM_IUPAC_OPENEYE_NAME>
2-amino-9-[(2R,4S,5R)-5-[[[(2S,3S,4R,5R)-5-(2-amino-6-oxo-1H-purin-9-yl)-2-(hydroxymethyl)-4-methyl-tetrahydrofuran-3-yl]sulfamoylamino]methyl]-4-hydroxy-tetrahydrofuran-2-yl]-1H-purin-6-one

> <PUBCHEM_IUPAC_CAS_NAME>
2-amino-9-[(2R,4S,5R)-5-[[[(2S,3S,4R,5R)-5-(2-amino-6-oxo-1H-purin-9-yl)-2-(hydroxymethyl)-4-methyl-3-oxolanyl]sulfamoylamino]methyl]-4-hydroxy-2-oxolanyl]-1H-purin-6-one

> <PUBCHEM_IUPAC_NAME_MARKUP>
2-amino-9-[(2<I>R</I>,4<I>S</I>,5<I>R</I>)-5-[[[(2<I>S</I>,3<I>S</I>,4<I>R</I>,5<I>R</I>)-5-(2-amino-6-oxo-1<I>H</I>-purin-9-yl)-2-(hydroxymethyl)-4-methyloxolan-3-yl]sulfamoylamino]methyl]-4-hydroxyoxolan-2-yl]-1<I>H</I>-purin-6-one

> <PUBCHEM_IUPAC_NAME>
2-amino-9-[(2R,4S,5R)-5-[[[(2S,3S,4R,5R)-5-(2-amino-6-oxo-1H-purin-9-yl)-2-(hydroxymethyl)-4-methyloxolan-3-yl]sulfamoylamino]methyl]-4-hydroxyoxolan-2-yl]-1H-purin-6-one

> <PUBCHEM_IUPAC_SYSTEMATIC_NAME>
2-azanyl-9-[(2R,4S,5R)-5-[[[(2S,3S,4R,5R)-5-(2-azanyl-6-oxidanylidene-1H-purin-9-yl)-2-(hydroxymethyl)-4-methyl-oxolan-3-yl]sulfamoylamino]methyl]-4-oxidanyl-oxolan-2-yl]-1H-purin-6-one

> <PUBCHEM_IUPAC_TRADITIONAL_NAME>
2-amino-9-[(2R,4S,5R)-5-[[[(2S,3S,4R,5R)-5-(2-amino-6-keto-1H-purin-9-yl)-4-methyl-2-methylol-tetrahydrofuran-3-yl]sulfamoylamino]methyl]-4-hydroxy-tetrahydrofuran-2-yl]hypoxanthine

> <PUBCHEM_IUPAC_INCHI>
InChI=1S/C21H28N12O8S/c1-7-12(10(4-34)41-19(7)33-6-25-14-16(33)28-21(23)30-18(14)37)31-42(38,39)26-3-9-8(35)2-11(40-9)32-5-24-13-15(32)27-20(22)29-17(13)36/h5-12,19,26,31,34-35H,2-4H2,1H3,(H3,22,27,29,36)(H3,23,28,30,37)/t7-,8+,9-,10-,11-,12+,19-/m1/s1

> <PUBCHEM_IUPAC_INCHIKEY>
XEIBTOIUOGUVAI-HZLXCRMFSA-N

> <PUBCHEM_XLOGP3_AA>
-3.1

> <PUBCHEM_EXACT_MASS>
608.18737707

> <PUBCHEM_MOLECULAR_FORMULA>
C21H28N12O8S

> <PUBCHEM_MOLECULAR_WEIGHT>
608.6

> <PUBCHEM_OPENEYE_CAN_SMILES>
CC1C(C(OC1N2C=NC3=C2N=C(NC3=O)N)CO)NS(=O)(=O)NCC4C(CC(O4)N5C=NC6=C5N=C(NC6=O)N)O

> <PUBCHEM_OPENEYE_ISO_SMILES>
C[C@@H]1[C@@H]([C@H](O[C@H]1N2C=NC3=C2N=C(NC3=O)N)CO)NS(=O)(=O)NC[C@@H]4[C@H](C[C@@H](O4)N5C=NC6=C5N=C(NC6=O)N)O

> <PUBCHEM_CACTVS_TPSA>
296

> <PUBCHEM_MONOISOTOPIC_WEIGHT>
608.18737707

> <PUBCHEM_TOTAL_CHARGE>
0

> <PUBCHEM_HEAVY_ATOM_COUNT>
42

> <PUBCHEM_ATOM_DEF_STEREO_COUNT>
7

> <PUBCHEM_ATOM_UDEF_STEREO_COUNT>
0

> <PUBCHEM_BOND_DEF_STEREO_COUNT>
0

> <PUBCHEM_BOND_UDEF_STEREO_COUNT>
0

> <PUBCHEM_ISOTOPIC_ATOM_COUNT>
0

> <PUBCHEM_COMPONENT_COUNT>
1

> <PUBCHEM_CACTVS_TAUTO_COUNT>
-1

> <PUBCHEM_COORDINATE_TYPE>
1
5
255

> <PUBCHEM_BONDANNOTATIONS>
22  10  5
24  11  6
11  33  8
11  34  8
31  13  6
13  36  8
13  37  8
14  34  8
14  35  8
15  33  8
15  40  8
16  37  8
16  39  8
17  38  8
17  40  8
18  36  8
18  42  8
19  41  8
19  42  8
23  26  5
25  27  6
28  32  6
33  35  8
35  38  8
36  39  8
39  41  8
29  5  5

$$$$
