 
  -OEChem-10192104102D

 52 54  0     1  0  0  0  0  0999 V2000
    6.9688   -1.3536    0.0000 P   0  0  3  0  0  0  0  0  0  0  0  0
    9.5669   -2.8536    0.0000 O   0  0  0  0  0  0  0  0  0  0  0  0
    7.8348   -4.8536    0.0000 O   0  0  0  0  0  0  0  0  0  0  0  0
    9.5669   -5.8536    0.0000 O   0  0  0  0  0  0  0  0  0  0  0  0
   11.2989   -4.8536    0.0000 O   0  0  0  0  0  0  0  0  0  0  0  0
    7.8348   -1.8536    0.0000 O   0  0  0  0  0  0  0  0  0  0  0  0
   11.2989   -2.8536    0.0000 O   0  0  0  0  0  0  0  0  0  0  0  0
    6.1028    0.1464    0.0000 O   0  0  0  0  0  0  0  0  0  0  0  0
    7.4688   -0.4876    0.0000 O   0  0  0  0  0  0  0  0  0  0  0  0
    6.4688   -2.2196    0.0000 O   0  0  0  0  0  0  0  0  0  0  0  0
    2.0000    4.4981    0.0000 O   0  0  0  0  0  0  0  0  0  0  0  0
    4.3707    2.1464    0.0000 N   0  0  0  0  0  0  0  0  0  0  0  0
    2.7959    2.4783    0.0000 N   0  0  0  0  0  0  0  0  0  0  0  0
    4.9355    3.8794    0.0000 N   0  0  0  0  0  0  0  0  0  0  0  0
    3.6464    5.0362    0.0000 N   0  0  0  0  0  0  0  0  0  0  0  0
    5.2927    5.5743    0.0000 N   0  0  0  0  0  0  0  0  0  0  0  0
    8.7009   -4.3536    0.0000 C   0  0  1  0  0  0  0  0  0  0  0  0
    9.5669   -4.8536    0.0000 C   0  0  1  0  0  0  0  0  0  0  0  0
    8.7009   -3.3536    0.0000 C   0  0  1  0  0  0  0  0  0  0  0  0
   10.4329   -4.3536    0.0000 C   0  0  1  0  0  0  0  0  0  0  0  0
   10.4329   -3.3536    0.0000 C   0  0  3  0  0  0  0  0  0  0  0  0
    7.8348   -2.8536    0.0000 C   0  0  0  0  0  0  0  0  0  0  0  0
    6.1028   -0.8536    0.0000 C   0  0  0  0  0  0  0  0  0  0  0  0
    5.2368    1.6464    0.0000 C   0  0  0  0  0  0  0  0  0  0  0  0
    5.2368    0.6464    0.0000 C   0  0  0  0  0  0  0  0  0  0  0  0
    4.2677    3.1351    0.0000 C   0  0  0  0  0  0  0  0  0  0  0  0
    3.2892    3.3414    0.0000 C   0  0  0  0  0  0  0  0  0  0  0  0
    3.4629    1.7413    0.0000 C   0  0  0  0  0  0  0  0  0  0  0  0
    2.9785    4.2919    0.0000 C   0  0  0  0  0  0  0  0  0  0  0  0
    4.6249    4.8300    0.0000 C   0  0  0  0  0  0  0  0  0  0  0  0
    8.1639   -4.0436    0.0000 H   0  0  0  0  0  0  0  0  0  0  0  0
    9.0299   -5.1636    0.0000 H   0  0  0  0  0  0  0  0  0  0  0  0
    8.7009   -2.7336    0.0000 H   0  0  0  0  0  0  0  0  0  0  0  0
   10.4329   -4.9736    0.0000 H   0  0  0  0  0  0  0  0  0  0  0  0
   10.9698   -3.6636    0.0000 H   0  0  0  0  0  0  0  0  0  0  0  0
    7.2242   -2.7459    0.0000 H   0  0  0  0  0  0  0  0  0  0  0  0
    7.6228   -3.4362    0.0000 H   0  0  0  0  0  0  0  0  0  0  0  0
    7.2979   -4.5436    0.0000 H   0  0  0  0  0  0  0  0  0  0  0  0
   10.1038   -6.1636    0.0000 H   0  0  0  0  0  0  0  0  0  0  0  0
   11.8359   -4.5436    0.0000 H   0  0  0  0  0  0  0  0  0  0  0  0
   11.2989   -2.2336    0.0000 H   0  0  0  0  0  0  0  0  0  0  0  0
    5.4922   -0.7459    0.0000 H   0  0  0  0  0  0  0  0  0  0  0  0
    5.8907   -1.4362    0.0000 H   0  0  0  0  0  0  0  0  0  0  0  0
    5.8473    1.5388    0.0000 H   0  0  0  0  0  0  0  0  0  0  0  0
    5.4488    2.2290    0.0000 H   0  0  0  0  0  0  0  0  0  0  0  0
    4.6262    0.7541    0.0000 H   0  0  0  0  0  0  0  0  0  0  0  0
    5.0247    0.0638    0.0000 H   0  0  0  0  0  0  0  0  0  0  0  0
    8.0888   -0.4876    0.0000 H   0  0  0  0  0  0  0  0  0  0  0  0
    3.3351    1.1346    0.0000 H   0  0  0  0  0  0  0  0  0  0  0  0
    3.4537    5.6255    0.0000 H   0  0  0  0  0  0  0  0  0  0  0  0
    5.1001    6.1636    0.0000 H   0  0  0  0  0  0  0  0  0  0  0  0
    5.8994    5.4464    0.0000 H   0  0  0  0  0  0  0  0  0  0  0  0
  1  6  1  0  0  0  0
  1  9  1  0  0  0  0
  1 10  2  0  0  0  0
  1 23  1  0  0  0  0
  2 19  1  0  0  0  0
  2 21  1  0  0  0  0
 17  3  1  6  0  0  0
  3 38  1  0  0  0  0
 18  4  1  1  0  0  0
  4 39  1  0  0  0  0
 20  5  1  1  0  0  0
  5 40  1  0  0  0  0
  6 22  1  0  0  0  0
  7 21  1  0  0  0  0
  7 41  1  0  0  0  0
  8 23  1  0  0  0  0
  8 25  1  0  0  0  0
  9 48  1  0  0  0  0
 11 29  2  0  0  0  0
 12 24  1  0  0  0  0
 12 26  1  0  0  0  0
 12 28  1  0  0  0  0
 13 27  1  0  0  0  0
 13 28  2  0  0  0  0
 14 26  1  0  0  0  0
 14 30  2  0  0  0  0
 15 29  1  0  0  0  0
 15 30  1  0  0  0  0
 15 50  1  0  0  0  0
 16 30  1  0  0  0  0
 16 51  1  0  0  0  0
 16 52  1  0  0  0  0
 17 18  1  0  0  0  0
 17 19  1  0  0  0  0
 17 31  1  0  0  0  0
 18 20  1  0  0  0  0
 18 32  1  0  0  0  0
 19 22  1  1  0  0  0
 19 33  1  0  0  0  0
 20 21  1  0  0  0  0
 20 34  1  0  0  0  0
 21 35  1  0  0  0  0
 22 36  1  0  0  0  0
 22 37  1  0  0  0  0
 23 42  1  0  0  0  0
 23 43  1  0  0  0  0
 24 25  1  0  0  0  0
 24 44  1  0  0  0  0
 24 45  1  0  0  0  0
 25 46  1  0  0  0  0
 25 47  1  0  0  0  0
 26 27  2  0  0  0  0
 27 29  1  0  0  0  0
 28 49  1  0  0  0  0
M  END
> <PUBCHEM_COMPOUND_CID>
136641761

> <PUBCHEM_COMPOUND_CANONICALIZED>
1

> <PUBCHEM_CACTVS_COMPLEXITY>
713

> <PUBCHEM_CACTVS_HBOND_ACCEPTOR>
12

> <PUBCHEM_CACTVS_HBOND_DONOR>
7

> <PUBCHEM_CACTVS_ROTATABLE_BOND>
8

> <PUBCHEM_CACTVS_SUBSKEYS>
AAADceBzvAIAAAAAAAAAAAAAAAAAAWAAAAAkQAAAAAAAAEABgAAAHggQCCAACBzxlgcFuBfMFxCoQQdxdICAgC0XEKABUAGoVECTWApASCAXQIgNAQLXAGHAYAQAAAAAAAAAAAAAAAAAAAAAAAAAAAAAAA==

> <PUBCHEM_IUPAC_OPENEYE_NAME>
2-(2-amino-6-oxo-1H-purin-9-yl)ethoxymethyl-[[(2R,3S,4S,5S)-3,4,5,6-tetrahydroxytetrahydropyran-2-yl]methoxy]phosphinic acid

> <PUBCHEM_IUPAC_CAS_NAME>
2-(2-amino-6-oxo-1H-purin-9-yl)ethoxymethyl-[[(2R,3S,4S,5S)-3,4,5,6-tetrahydroxy-2-oxanyl]methoxy]phosphinic acid

> <PUBCHEM_IUPAC_NAME_MARKUP>
2-(2-amino-6-oxo-1<I>H</I>-purin-9-yl)ethoxymethyl-[[(2<I>R</I>,3<I>S</I>,4<I>S</I>,5<I>S</I>)-3,4,5,6-tetrahydroxyoxan-2-yl]methoxy]phosphinic acid

> <PUBCHEM_IUPAC_NAME>
2-(2-amino-6-oxo-1H-purin-9-yl)ethoxymethyl-[[(2R,3S,4S,5S)-3,4,5,6-tetrahydroxyoxan-2-yl]methoxy]phosphinic acid

> <PUBCHEM_IUPAC_SYSTEMATIC_NAME>
2-(2-azanyl-6-oxidanylidene-1H-purin-9-yl)ethoxymethyl-[[(2R,3S,4S,5S)-3,4,5,6-tetrakis(oxidanyl)oxan-2-yl]methoxy]phosphinic acid

> <PUBCHEM_IUPAC_TRADITIONAL_NAME>
2-(2-amino-6-keto-1H-purin-9-yl)ethoxymethyl-[[(2R,3S,4S,5S)-3,4,5,6-tetrahydroxytetrahydropyran-2-yl]methoxy]phosphinic acid

> <PUBCHEM_IUPAC_INCHI>
InChI=1S/C14H22N5O10P/c15-14-17-11-7(12(23)18-14)16-4-19(11)1-2-27-5-30(25,26)28-3-6-8(20)9(21)10(22)13(24)29-6/h4,6,8-10,13,20-22,24H,1-3,5H2,(H,25,26)(H3,15,17,18,23)/t6-,8-,9+,10+,13?/m1/s1

> <PUBCHEM_IUPAC_INCHIKEY>
BFWHFBWNCKUBPS-GRIUGYEBSA-N

> <PUBCHEM_XLOGP3_AA>
-5.2

> <PUBCHEM_EXACT_MASS>
451.11042891

> <PUBCHEM_MOLECULAR_FORMULA>
C14H22N5O10P

> <PUBCHEM_MOLECULAR_WEIGHT>
451.33

> <PUBCHEM_OPENEYE_CAN_SMILES>
C1=NC2=C(N1CCOCP(=O)(O)OCC3C(C(C(C(O3)O)O)O)O)N=C(NC2=O)N

> <PUBCHEM_OPENEYE_ISO_SMILES>
C1=NC2=C(N1CCOCP(=O)(O)OC[C@@H]3[C@H]([C@@H]([C@@H](C(O3)O)O)O)O)N=C(NC2=O)N

> <PUBCHEM_CACTVS_TPSA>
231

> <PUBCHEM_MONOISOTOPIC_WEIGHT>
451.11042891

> <PUBCHEM_TOTAL_CHARGE>
0

> <PUBCHEM_HEAVY_ATOM_COUNT>
30

> <PUBCHEM_ATOM_DEF_STEREO_COUNT>
4

> <PUBCHEM_ATOM_UDEF_STEREO_COUNT>
1

> <PUBCHEM_BOND_DEF_STEREO_COUNT>
0

> <PUBCHEM_BOND_UDEF_STEREO_COUNT>
0

> <PUBCHEM_ISOTOPIC_ATOM_COUNT>
0

> <PUBCHEM_COMPONENT_COUNT>
1

> <PUBCHEM_CACTVS_TAUTO_COUNT>
-1

> <PUBCHEM_COORDINATE_TYPE>
1
5
255

> <PUBCHEM_BONDANNOTATIONS>
12  26  8
12  28  8
13  27  8
13  28  8
14  26  8
14  30  8
15  29  8
15  30  8
19  22  5
26  27  8
27  29  8
17  3  6
18  4  5
20  5  5
21  7  3

$$$$
