 
  -OEChem-10192104402D

 70 71  0     1  0  0  0  0  0999 V2000
    6.8301    0.7497    0.0000 O   0  0  0  0  0  0  0  0  0  0  0  0
    7.1962   -0.6163    0.0000 O   0  0  0  0  0  0  0  0  0  0  0  0
    5.4641   -0.6163    0.0000 O   0  0  0  0  0  0  0  0  0  0  0  0
    9.4174    0.7110    0.0000 O   0  0  0  0  0  0  0  0  0  0  0  0
    7.1962   -2.6163    0.0000 O   0  0  0  0  0  0  0  0  0  0  0  0
    8.5326    2.6984    0.0000 O   0  0  0  0  0  0  0  0  0  0  0  0
    5.4641   -3.6163    0.0000 O   0  0  0  0  0  0  0  0  0  0  0  0
    3.7320   -2.6163    0.0000 O   0  0  0  0  0  0  0  0  0  0  0  0
    8.0563   -1.4445    0.0000 O   0  0  0  0  0  0  0  0  0  0  0  0
    6.6779    3.4221    0.0000 O   0  0  0  0  0  0  0  0  0  0  0  0
    3.7320    0.3837    0.0000 O   0  0  0  0  0  0  0  0  0  0  0  0
    6.3301   -4.1163    0.0000 O   0  0  0  0  0  0  0  0  0  0  0  0
    3.7320   -3.6163    0.0000 O   0  0  0  0  0  0  0  0  0  0  0  0
    2.8660   -1.1163    0.0000 O   0  0  0  0  0  0  0  0  0  0  0  0
    5.0306    3.9573    0.0000 O   0  0  0  0  0  0  0  0  0  0  0  0
    2.0000    0.3837    0.0000 O   0  0  0  0  0  0  0  0  0  0  0  0
    7.6962    0.2497    0.0000 C   0  0  1  0  0  0  0  0  0  0  0  0
    8.4393    0.9189    0.0000 C   0  0  3  0  0  0  0  0  0  0  0  0
    8.0326    1.8324    0.0000 C   0  0  2  0  0  0  0  0  0  0  0  0
    7.0380    1.7279    0.0000 C   0  0  1  0  0  0  0  0  0  0  0  0
    6.3301   -1.1163    0.0000 C   0  0  1  0  0  0  0  0  0  0  0  0
    6.3301   -2.1163    0.0000 C   0  0  3  0  0  0  0  0  0  0  0  0
    5.4641   -2.6163    0.0000 C   0  0  2  0  0  0  0  0  0  0  0  0
    4.5981   -2.1163    0.0000 C   0  0  1  0  0  0  0  0  0  0  0  0
    4.5981   -1.1163    0.0000 C   0  0  3  0  0  0  0  0  0  0  0  0
    8.3653   -0.4934    0.0000 C   0  0  0  0  0  0  0  0  0  0  0  0
    6.3689    2.4710    0.0000 C   0  0  0  0  0  0  0  0  0  0  0  0
    3.7320   -0.6163    0.0000 C   0  0  0  0  0  0  0  0  0  0  0  0
    7.1962   -3.6163    0.0000 C   0  0  0  0  0  0  0  0  0  0  0  0
    4.5981   -4.1163    0.0000 C   0  0  0  0  0  0  0  0  0  0  0  0
    2.8660   -2.1163    0.0000 C   0  0  0  0  0  0  0  0  0  0  0  0
    6.0088    4.1652    0.0000 C   0  0  0  0  0  0  0  0  0  0  0  0
    8.0622   -4.1163    0.0000 C   0  0  0  0  0  0  0  0  0  0  0  0
    4.5981   -5.1163    0.0000 C   0  0  0  0  0  0  0  0  0  0  0  0
    2.8660    0.8837    0.0000 C   0  0  0  0  0  0  0  0  0  0  0  0
    2.0000   -2.6163    0.0000 C   0  0  0  0  0  0  0  0  0  0  0  0
    6.3178    5.1163    0.0000 C   0  0  0  0  0  0  0  0  0  0  0  0
    2.3660    1.7497    0.0000 C   0  0  0  0  0  0  0  0  0  0  0  0
    8.8295    1.4007    0.0000 H   0  0  0  0  0  0  0  0  0  0  0  0
    7.6949    2.3524    0.0000 H   0  0  0  0  0  0  0  0  0  0  0  0
    6.4392    1.5674    0.0000 H   0  0  0  0  0  0  0  0  0  0  0  0
    6.3301   -0.4963    0.0000 H   0  0  0  0  0  0  0  0  0  0  0  0
    6.3301   -2.7363    0.0000 H   0  0  0  0  0  0  0  0  0  0  0  0
    4.9272   -2.9263    0.0000 H   0  0  0  0  0  0  0  0  0  0  0  0
    4.5981   -2.7363    0.0000 H   0  0  0  0  0  0  0  0  0  0  0  0
    4.5981   -0.4963    0.0000 H   0  0  0  0  0  0  0  0  0  0  0  0
    8.9127   -0.7845    0.0000 H   0  0  0  0  0  0  0  0  0  0  0  0
    8.7470   -0.0048    0.0000 H   0  0  0  0  0  0  0  0  0  0  0  0
    5.8215    2.7621    0.0000 H   0  0  0  0  0  0  0  0  0  0  0  0
    5.9872    1.9825    0.0000 H   0  0  0  0  0  0  0  0  0  0  0  0
    3.1215   -0.5086    0.0000 H   0  0  0  0  0  0  0  0  0  0  0  0
    3.5200   -1.1989    0.0000 H   0  0  0  0  0  0  0  0  0  0  0  0
    9.8323    1.1717    0.0000 H   0  0  0  0  0  0  0  0  0  0  0  0
    9.1526    2.6984    0.0000 H   0  0  0  0  0  0  0  0  0  0  0  0
    8.4711   -1.9052    0.0000 H   0  0  0  0  0  0  0  0  0  0  0  0
    7.7522   -4.6532    0.0000 H   0  0  0  0  0  0  0  0  0  0  0  0
    8.5991   -4.4263    0.0000 H   0  0  0  0  0  0  0  0  0  0  0  0
    8.3722   -3.5794    0.0000 H   0  0  0  0  0  0  0  0  0  0  0  0
    3.9781   -5.1163    0.0000 H   0  0  0  0  0  0  0  0  0  0  0  0
    4.5981   -5.7363    0.0000 H   0  0  0  0  0  0  0  0  0  0  0  0
    5.2181   -5.1163    0.0000 H   0  0  0  0  0  0  0  0  0  0  0  0
    1.6900   -2.0793    0.0000 H   0  0  0  0  0  0  0  0  0  0  0  0
    1.4631   -2.9263    0.0000 H   0  0  0  0  0  0  0  0  0  0  0  0
    2.3100   -3.1532    0.0000 H   0  0  0  0  0  0  0  0  0  0  0  0
    6.9075    4.9247    0.0000 H   0  0  0  0  0  0  0  0  0  0  0  0
    6.5094    5.7059    0.0000 H   0  0  0  0  0  0  0  0  0  0  0  0
    5.7282    5.3079    0.0000 H   0  0  0  0  0  0  0  0  0  0  0  0
    2.9030    2.0597    0.0000 H   0  0  0  0  0  0  0  0  0  0  0  0
    2.0560    2.2867    0.0000 H   0  0  0  0  0  0  0  0  0  0  0  0
    1.8291    1.4397    0.0000 H   0  0  0  0  0  0  0  0  0  0  0  0
  1 17  1  0  0  0  0
  1 20  1  0  0  0  0
 17  2  1  6  0  0  0
 21  2  1  6  0  0  0
  3 21  1  0  0  0  0
  3 25  1  0  0  0  0
  4 18  1  0  0  0  0
  4 53  1  0  0  0  0
  5 22  1  0  0  0  0
  5 29  1  0  0  0  0
 19  6  1  6  0  0  0
  6 54  1  0  0  0  0
 23  7  1  1  0  0  0
  7 30  1  0  0  0  0
 24  8  1  6  0  0  0
  8 31  1  0  0  0  0
  9 26  1  0  0  0  0
  9 55  1  0  0  0  0
 10 27  1  0  0  0  0
 10 32  1  0  0  0  0
 11 28  1  0  0  0  0
 11 35  1  0  0  0  0
 12 29  2  0  0  0  0
 13 30  2  0  0  0  0
 14 31  2  0  0  0  0
 15 32  2  0  0  0  0
 16 35  2  0  0  0  0
 17 18  1  0  0  0  0
 17 26  1  0  0  0  0
 18 19  1  0  0  0  0
 18 39  1  0  0  0  0
 19 20  1  0  0  0  0
 19 40  1  0  0  0  0
 20 27  1  6  0  0  0
 20 41  1  0  0  0  0
 21 22  1  0  0  0  0
 21 42  1  0  0  0  0
 22 23  1  0  0  0  0
 22 43  1  0  0  0  0
 23 24  1  0  0  0  0
 23 44  1  0  0  0  0
 24 25  1  0  0  0  0
 24 45  1  0  0  0  0
 25 28  1  0  0  0  0
 25 46  1  0  0  0  0
 26 47  1  0  0  0  0
 26 48  1  0  0  0  0
 27 49  1  0  0  0  0
 27 50  1  0  0  0  0
 28 51  1  0  0  0  0
 28 52  1  0  0  0  0
 29 33  1  0  0  0  0
 30 34  1  0  0  0  0
 31 36  1  0  0  0  0
 32 37  1  0  0  0  0
 33 56  1  0  0  0  0
 33 57  1  0  0  0  0
 33 58  1  0  0  0  0
 34 59  1  0  0  0  0
 34 60  1  0  0  0  0
 34 61  1  0  0  0  0
 35 38  1  0  0  0  0
 36 62  1  0  0  0  0
 36 63  1  0  0  0  0
 36 64  1  0  0  0  0
 37 65  1  0  0  0  0
 37 66  1  0  0  0  0
 37 67  1  0  0  0  0
 38 68  1  0  0  0  0
 38 69  1  0  0  0  0
 38 70  1  0  0  0  0
M  END
> <PUBCHEM_COMPOUND_CID>
118509016

> <PUBCHEM_COMPOUND_CANONICALIZED>
1

> <PUBCHEM_CACTVS_COMPLEXITY>
891

> <PUBCHEM_CACTVS_HBOND_ACCEPTOR>
16

> <PUBCHEM_CACTVS_HBOND_DONOR>
3

> <PUBCHEM_CACTVS_ROTATABLE_BOND>
15

> <PUBCHEM_CACTVS_SUBSKEYS>
AAADcfB4PgAAAAAAAAAAAAAAAAAAASAAAAAkAAAAAAAAAAAAAAAAGgAACAAACBSwgAMCCAAABgAIAACQCAAAAAAAAAAAAAAAAAAREAIAAAAiQAAFAAAHAAHAYAwAAAAAAAAAAAAAAAAAAAAAAAAAAAAAAA==

> <PUBCHEM_IUPAC_OPENEYE_NAME>
[(2R,3R,5S)-3,4-dihydroxy-5-(hydroxymethyl)-5-[(2R,4S,5R)-3,4,5-triacetoxy-6-(acetoxymethyl)tetrahydropyran-2-yl]oxy-tetrahydrofuran-2-yl]methyl acetate

> <PUBCHEM_IUPAC_CAS_NAME>
acetic acid [(2R,3R,5S)-3,4-dihydroxy-5-(hydroxymethyl)-5-[[(2R,4S,5R)-3,4,5-triacetyloxy-6-(acetyloxymethyl)-2-oxanyl]oxy]-2-oxolanyl]methyl ester

> <PUBCHEM_IUPAC_NAME_MARKUP>
[(2<I>R</I>,3<I>R</I>,5<I>S</I>)-3,4-dihydroxy-5-(hydroxymethyl)-5-[(2<I>R</I>,4<I>S</I>,5<I>R</I>)-3,4,5-triacetyloxy-6-(acetyloxymethyl)oxan-2-yl]oxyoxolan-2-yl]methyl acetate

> <PUBCHEM_IUPAC_NAME>
[(2R,3R,5S)-3,4-dihydroxy-5-(hydroxymethyl)-5-[(2R,4S,5R)-3,4,5-triacetyloxy-6-(acetyloxymethyl)oxan-2-yl]oxyoxolan-2-yl]methyl acetate

> <PUBCHEM_IUPAC_SYSTEMATIC_NAME>
[(2R,3R,5S)-5-(hydroxymethyl)-3,4-bis(oxidanyl)-5-[(2R,4S,5R)-3,4,5-triacetyloxy-6-(acetyloxymethyl)oxan-2-yl]oxy-oxolan-2-yl]methyl ethanoate

> <PUBCHEM_IUPAC_TRADITIONAL_NAME>
acetic acid [(2R,3R,5S)-3,4-dihydroxy-5-methylol-5-[(2R,4S,5R)-3,4,5-triacetoxy-6-(acetoxymethyl)tetrahydropyran-2-yl]oxy-tetrahydrofuran-2-yl]methyl ester

> <PUBCHEM_IUPAC_INCHI>
InChI=1S/C22H32O16/c1-9(24)31-6-14-16(29)20(30)22(8-23,37-14)38-21-19(35-13(5)28)18(34-12(4)27)17(33-11(3)26)15(36-21)7-32-10(2)25/h14-21,23,29-30H,6-8H2,1-5H3/t14-,15?,16+,17-,18+,19?,20?,21-,22+/m1/s1

> <PUBCHEM_IUPAC_INCHIKEY>
PGMHVDKIHHKUOY-SQIBXNDFSA-N

> <PUBCHEM_XLOGP3>
-1.9

> <PUBCHEM_EXACT_MASS>
552.16903493

> <PUBCHEM_MOLECULAR_FORMULA>
C22H32O16

> <PUBCHEM_MOLECULAR_WEIGHT>
552.5

> <PUBCHEM_OPENEYE_CAN_SMILES>
CC(=O)OCC1C(C(C(O1)(CO)OC2C(C(C(C(O2)COC(=O)C)OC(=O)C)OC(=O)C)OC(=O)C)O)O

> <PUBCHEM_OPENEYE_ISO_SMILES>
CC(=O)OC[C@@H]1[C@@H](C([C@](O1)(CO)O[C@@H]2C([C@H]([C@@H](C(O2)COC(=O)C)OC(=O)C)OC(=O)C)OC(=O)C)O)O

> <PUBCHEM_CACTVS_TPSA>
220

> <PUBCHEM_MONOISOTOPIC_WEIGHT>
552.16903493

> <PUBCHEM_TOTAL_CHARGE>
0

> <PUBCHEM_HEAVY_ATOM_COUNT>
38

> <PUBCHEM_ATOM_DEF_STEREO_COUNT>
6

> <PUBCHEM_ATOM_UDEF_STEREO_COUNT>
3

> <PUBCHEM_BOND_DEF_STEREO_COUNT>
0

> <PUBCHEM_BOND_UDEF_STEREO_COUNT>
0

> <PUBCHEM_ISOTOPIC_ATOM_COUNT>
0

> <PUBCHEM_COMPONENT_COUNT>
1

> <PUBCHEM_CACTVS_TAUTO_COUNT>
-1

> <PUBCHEM_COORDINATE_TYPE>
1
5
255

> <PUBCHEM_BONDANNOTATIONS>
17  2  6
21  2  6
20  27  6
25  28  3
18  4  3
22  5  3
19  6  6
23  7  5
24  8  6

$$$$
