 
  -OEChem-10192103322D

 31 30  0     1  0  0  0  0  0999 V2000
    3.4030   -2.0670    0.0000 S   0  0  0  0  0  0  0  0  0  0  0  0
    2.5369   -2.5670    0.0000 O   0  0  0  0  0  0  0  0  0  0  0  0
    2.9030   -1.2010    0.0000 O   0  0  0  0  0  0  0  0  0  0  0  0
    3.9030   -2.9330    0.0000 O   0  0  0  0  0  0  0  0  0  0  0  0
    5.1350    2.9330    0.0000 O   0  0  0  0  0  0  0  0  0  0  0  0
    6.0010   -1.5670    0.0000 O   0  0  0  0  0  0  0  0  0  0  0  0
    5.1350   -0.0670    0.0000 C   0  0  0  0  0  0  0  0  0  0  0  0
    5.1350    0.9330    0.0000 C   0  0  0  0  0  0  0  0  0  0  0  0
    4.2690   -0.5670    0.0000 C   0  0  0  0  0  0  0  0  0  0  0  0
    6.0010    1.4330    0.0000 C   0  0  3  0  0  0  0  0  0  0  0  0
    4.2690   -1.5670    0.0000 C   0  0  3  0  0  0  0  0  0  0  0  0
    6.8671    0.9330    0.0000 C   0  0  0  0  0  0  0  0  0  0  0  0
    6.0010    2.4330    0.0000 C   0  0  0  0  0  0  0  0  0  0  0  0
    5.1350   -2.0670    0.0000 C   0  0  0  0  0  0  0  0  0  0  0  0
    6.8671    2.9330    0.0000 C   0  0  0  0  0  0  0  0  0  0  0  0
    5.3471   -0.6496    0.0000 H   0  0  0  0  0  0  0  0  0  0  0  0
    5.7456    0.0407    0.0000 H   0  0  0  0  0  0  0  0  0  0  0  0
    4.9230    1.5156    0.0000 H   0  0  0  0  0  0  0  0  0  0  0  0
    4.5244    0.8254    0.0000 H   0  0  0  0  0  0  0  0  0  0  0  0
    4.0569    0.0156    0.0000 H   0  0  0  0  0  0  0  0  0  0  0  0
    3.6584   -0.6746    0.0000 H   0  0  0  0  0  0  0  0  0  0  0  0
    6.5380    1.7430    0.0000 H   0  0  0  0  0  0  0  0  0  0  0  0
    4.2690   -2.1870    0.0000 H   0  0  0  0  0  0  0  0  0  0  0  0
    6.5571    0.3961    0.0000 H   0  0  0  0  0  0  0  0  0  0  0  0
    7.4040    0.6230    0.0000 H   0  0  0  0  0  0  0  0  0  0  0  0
    7.1771    1.4700    0.0000 H   0  0  0  0  0  0  0  0  0  0  0  0
    5.1350   -2.6870    0.0000 H   0  0  0  0  0  0  0  0  0  0  0  0
    7.1771    2.3961    0.0000 H   0  0  0  0  0  0  0  0  0  0  0  0
    7.4040    3.2430    0.0000 H   0  0  0  0  0  0  0  0  0  0  0  0
    6.5571    3.4700    0.0000 H   0  0  0  0  0  0  0  0  0  0  0  0
    2.0000   -2.2570    0.0000 H   0  0  0  0  0  0  0  0  0  0  0  0
  1  2  1  0  0  0  0
  1  3  2  0  0  0  0
  1  4  2  0  0  0  0
  1 11  1  0  0  0  0
  2 31  1  0  0  0  0
  5 13  2  0  0  0  0
  6 14  2  0  0  0  0
  7  8  1  0  0  0  0
  7  9  1  0  0  0  0
  7 16  1  0  0  0  0
  7 17  1  0  0  0  0
  8 10  1  0  0  0  0
  8 18  1  0  0  0  0
  8 19  1  0  0  0  0
  9 11  1  0  0  0  0
  9 20  1  0  0  0  0
  9 21  1  0  0  0  0
 10 12  1  0  0  0  0
 10 13  1  0  0  0  0
 10 22  1  0  0  0  0
 11 14  1  0  0  0  0
 11 23  1  0  0  0  0
 12 24  1  0  0  0  0
 12 25  1  0  0  0  0
 12 26  1  0  0  0  0
 13 15  1  0  0  0  0
 14 27  1  0  0  0  0
 15 28  1  0  0  0  0
 15 29  1  0  0  0  0
 15 30  1  0  0  0  0
M  END
> <PUBCHEM_COMPOUND_CID>
91246582

> <PUBCHEM_COMPOUND_CANONICALIZED>
1

> <PUBCHEM_CACTVS_COMPLEXITY>
314

> <PUBCHEM_CACTVS_HBOND_ACCEPTOR>
5

> <PUBCHEM_CACTVS_HBOND_DONOR>
1

> <PUBCHEM_CACTVS_ROTATABLE_BOND>
7

> <PUBCHEM_CACTVS_SUBSKEYS>
AAADceBwOABAAAAAAAAAAAAAAAAAAAAAAAAAAAAAAAAAAAAAAAAAGgQACAAADQSkwAKCAAAAAIIIAIgQgHBAAAAAAAAAAAEAAAAAABIAAAAAAAAAAAAAAAEIiMCOAAAAAAAAAAAAAAAAAAAAAAAAAAAAAA==

> <PUBCHEM_IUPAC_OPENEYE_NAME>
6-methyl-1,7-dioxo-octane-2-sulfonic acid

> <PUBCHEM_IUPAC_CAS_NAME>
6-methyl-1,7-dioxo-2-octanesulfonic acid

> <PUBCHEM_IUPAC_NAME_MARKUP>
6-methyl-1,7-dioxooctane-2-sulfonic acid

> <PUBCHEM_IUPAC_NAME>
6-methyl-1,7-dioxooctane-2-sulfonic acid

> <PUBCHEM_IUPAC_SYSTEMATIC_NAME>
6-methyl-1,7-bis(oxidanylidene)octane-2-sulfonic acid

> <PUBCHEM_IUPAC_TRADITIONAL_NAME>
1,7-diketo-6-methyl-octane-2-sulfonic acid

> <PUBCHEM_IUPAC_INCHI>
InChI=1S/C9H16O5S/c1-7(8(2)11)4-3-5-9(6-10)15(12,13)14/h6-7,9H,3-5H2,1-2H3,(H,12,13,14)

> <PUBCHEM_IUPAC_INCHIKEY>
HRJGPNGKHIPHNI-UHFFFAOYSA-N

> <PUBCHEM_XLOGP3_AA>
0

> <PUBCHEM_EXACT_MASS>
236.07184478

> <PUBCHEM_MOLECULAR_FORMULA>
C9H16O5S

> <PUBCHEM_MOLECULAR_WEIGHT>
236.29

> <PUBCHEM_OPENEYE_CAN_SMILES>
CC(CCCC(C=O)S(=O)(=O)O)C(=O)C

> <PUBCHEM_OPENEYE_ISO_SMILES>
CC(CCCC(C=O)S(=O)(=O)O)C(=O)C

> <PUBCHEM_CACTVS_TPSA>
96.9

> <PUBCHEM_MONOISOTOPIC_WEIGHT>
236.07184478

> <PUBCHEM_TOTAL_CHARGE>
0

> <PUBCHEM_HEAVY_ATOM_COUNT>
15

> <PUBCHEM_ATOM_DEF_STEREO_COUNT>
0

> <PUBCHEM_ATOM_UDEF_STEREO_COUNT>
2

> <PUBCHEM_BOND_DEF_STEREO_COUNT>
0

> <PUBCHEM_BOND_UDEF_STEREO_COUNT>
0

> <PUBCHEM_ISOTOPIC_ATOM_COUNT>
0

> <PUBCHEM_COMPONENT_COUNT>
1

> <PUBCHEM_CACTVS_TAUTO_COUNT>
-1

> <PUBCHEM_COORDINATE_TYPE>
1
5
255

> <PUBCHEM_BONDANNOTATIONS>
10  12  3
11  9  3

$$$$
