 
  -OEChem-10192104032D

 35 35  0     1  0  0  0  0  0999 V2000
    5.4641    1.0600    0.0000 O   0  0  0  0  0  0  0  0  0  0  0  0
    3.7320    0.0600    0.0000 O   0  0  0  0  0  0  0  0  0  0  0  0
    7.1962    0.0600    0.0000 O   0  0  0  0  0  0  0  0  0  0  0  0
    3.7320   -1.9400    0.0000 O   0  0  0  0  0  0  0  0  0  0  0  0
    7.1962    1.0600    0.0000 O   0  0  0  0  0  0  0  0  0  0  0  0
    2.8660   -1.4400    0.0000 O   0  0  0  0  0  0  0  0  0  0  0  0
    8.0622   -1.4400    0.0000 O   0  0  0  0  0  0  0  0  0  0  0  0
    5.4641    0.0600    0.0000 C   0  0  1  0  0  0  0  0  0  0  0  0
    4.5981   -0.4400    0.0000 C   0  0  1  0  0  0  0  0  0  0  0  0
    6.3301   -0.4400    0.0000 C   0  0  1  0  0  0  0  0  0  0  0  0
    4.5981   -1.4400    0.0000 C   0  0  1  0  0  0  0  0  0  0  0  0
    6.3301   -1.4400    0.0000 C   0  0  0  0  0  0  0  0  0  0  0  0
    5.4641   -1.9400    0.0000 C   0  0  0  0  0  0  0  0  0  0  0  0
    6.3301    1.5600    0.0000 C   0  0  0  0  0  0  0  0  0  0  0  0
    2.8660   -0.4400    0.0000 C   0  0  0  0  0  0  0  0  0  0  0  0
    8.0622   -0.4400    0.0000 C   0  0  0  0  0  0  0  0  0  0  0  0
    6.3301    2.5600    0.0000 C   0  0  0  0  0  0  0  0  0  0  0  0
    2.0000    0.0600    0.0000 C   0  0  0  0  0  0  0  0  0  0  0  0
    8.9282    0.0600    0.0000 C   0  0  0  0  0  0  0  0  0  0  0  0
    6.0010    0.3700    0.0000 H   0  0  0  0  0  0  0  0  0  0  0  0
    4.5981    0.1800    0.0000 H   0  0  0  0  0  0  0  0  0  0  0  0
    6.8671   -0.7500    0.0000 H   0  0  0  0  0  0  0  0  0  0  0  0
    4.5981   -2.0600    0.0000 H   0  0  0  0  0  0  0  0  0  0  0  0
    6.8671   -1.7500    0.0000 H   0  0  0  0  0  0  0  0  0  0  0  0
    5.4641   -2.5600    0.0000 H   0  0  0  0  0  0  0  0  0  0  0  0
    3.7320   -2.5600    0.0000 H   0  0  0  0  0  0  0  0  0  0  0  0
    6.9501    2.5600    0.0000 H   0  0  0  0  0  0  0  0  0  0  0  0
    6.3301    3.1800    0.0000 H   0  0  0  0  0  0  0  0  0  0  0  0
    5.7101    2.5600    0.0000 H   0  0  0  0  0  0  0  0  0  0  0  0
    2.3100    0.5969    0.0000 H   0  0  0  0  0  0  0  0  0  0  0  0
    1.4631    0.3700    0.0000 H   0  0  0  0  0  0  0  0  0  0  0  0
    1.6900   -0.4769    0.0000 H   0  0  0  0  0  0  0  0  0  0  0  0
    9.2382   -0.4769    0.0000 H   0  0  0  0  0  0  0  0  0  0  0  0
    9.4651    0.3700    0.0000 H   0  0  0  0  0  0  0  0  0  0  0  0
    8.6182    0.5969    0.0000 H   0  0  0  0  0  0  0  0  0  0  0  0
  8  1  1  6  0  0  0
  1 14  1  0  0  0  0
  9  2  1  1  0  0  0
  2 15  1  0  0  0  0
 10  3  1  6  0  0  0
  3 16  1  0  0  0  0
 11  4  1  1  0  0  0
  4 26  1  0  0  0  0
  5 14  2  0  0  0  0
  6 15  2  0  0  0  0
  7 16  2  0  0  0  0
  8  9  1  0  0  0  0
  8 10  1  0  0  0  0
  8 20  1  0  0  0  0
  9 11  1  0  0  0  0
  9 21  1  0  0  0  0
 10 12  1  0  0  0  0
 10 22  1  0  0  0  0
 11 13  1  0  0  0  0
 11 23  1  0  0  0  0
 12 13  2  0  0  0  0
 12 24  1  0  0  0  0
 13 25  1  0  0  0  0
 14 17  1  0  0  0  0
 15 18  1  0  0  0  0
 16 19  1  0  0  0  0
 17 27  1  0  0  0  0
 17 28  1  0  0  0  0
 17 29  1  0  0  0  0
 18 30  1  0  0  0  0
 18 31  1  0  0  0  0
 18 32  1  0  0  0  0
 19 33  1  0  0  0  0
 19 34  1  0  0  0  0
 19 35  1  0  0  0  0
M  END
> <PUBCHEM_COMPOUND_CID>
11108466

> <PUBCHEM_COMPOUND_CANONICALIZED>
1

> <PUBCHEM_CACTVS_COMPLEXITY>
401

> <PUBCHEM_CACTVS_HBOND_ACCEPTOR>
7

> <PUBCHEM_CACTVS_HBOND_DONOR>
1

> <PUBCHEM_CACTVS_ROTATABLE_BOND>
6

> <PUBCHEM_CACTVS_SUBSKEYS>
AAADceBwOAAAAAAAAAAAAAAAAAAAAAAAAAAgAAAAAAAAAAAAAAAAGgAACAAACBSggAICCAAABgCIACDSCAAAAAAgAAAICAAAAAgBFAIAIQACUAAFwAALMAPAAAAAAAAAAAAAAAAAAAAAAAAAAAAAAAAAAA==

> <PUBCHEM_IUPAC_OPENEYE_NAME>
[(1R,4R,5R,6R)-5,6-diacetoxy-4-hydroxy-cyclohex-2-en-1-yl] acetate

> <PUBCHEM_IUPAC_CAS_NAME>
acetic acid [(1R,4R,5R,6R)-5,6-diacetyloxy-4-hydroxy-1-cyclohex-2-enyl] ester

> <PUBCHEM_IUPAC_NAME_MARKUP>
[(1<I>R</I>,4<I>R</I>,5<I>R</I>,6<I>R</I>)-5,6-diacetyloxy-4-hydroxycyclohex-2-en-1-yl] acetate

> <PUBCHEM_IUPAC_NAME>
[(1R,4R,5R,6R)-5,6-diacetyloxy-4-hydroxycyclohex-2-en-1-yl] acetate

> <PUBCHEM_IUPAC_SYSTEMATIC_NAME>
[(1R,4R,5R,6R)-5,6-diacetyloxy-4-oxidanyl-cyclohex-2-en-1-yl] ethanoate

> <PUBCHEM_IUPAC_TRADITIONAL_NAME>
acetic acid [(1R,4R,5R,6R)-5,6-diacetoxy-4-hydroxy-cyclohex-2-en-1-yl] ester

> <PUBCHEM_IUPAC_INCHI>
InChI=1S/C12H16O7/c1-6(13)17-10-5-4-9(16)11(18-7(2)14)12(10)19-8(3)15/h4-5,9-12,16H,1-3H3/t9-,10-,11-,12-/m1/s1

> <PUBCHEM_IUPAC_INCHIKEY>
CUOUFPIIDGEYPC-DDHJBXDOSA-N

> <PUBCHEM_XLOGP3_AA>
-0.4

> <PUBCHEM_EXACT_MASS>
272.08960285

> <PUBCHEM_MOLECULAR_FORMULA>
C12H16O7

> <PUBCHEM_MOLECULAR_WEIGHT>
272.25

> <PUBCHEM_OPENEYE_CAN_SMILES>
CC(=O)OC1C=CC(C(C1OC(=O)C)OC(=O)C)O

> <PUBCHEM_OPENEYE_ISO_SMILES>
CC(=O)O[C@@H]1C=C[C@H]([C@H]([C@@H]1OC(=O)C)OC(=O)C)O

> <PUBCHEM_CACTVS_TPSA>
99.1

> <PUBCHEM_MONOISOTOPIC_WEIGHT>
272.08960285

> <PUBCHEM_TOTAL_CHARGE>
0

> <PUBCHEM_HEAVY_ATOM_COUNT>
19

> <PUBCHEM_ATOM_DEF_STEREO_COUNT>
4

> <PUBCHEM_ATOM_UDEF_STEREO_COUNT>
0

> <PUBCHEM_BOND_DEF_STEREO_COUNT>
0

> <PUBCHEM_BOND_UDEF_STEREO_COUNT>
0

> <PUBCHEM_ISOTOPIC_ATOM_COUNT>
0

> <PUBCHEM_COMPONENT_COUNT>
1

> <PUBCHEM_CACTVS_TAUTO_COUNT>
-1

> <PUBCHEM_COORDINATE_TYPE>
1
5
255

> <PUBCHEM_BONDANNOTATIONS>
8  1  6
9  2  5
10  3  6
11  4  5

$$$$
