 
  -OEChem-10192103482D

 97 99  0     0  0  0  0  0  0999 V2000
   23.1200   -4.1292    0.0000 O   0  0  0  0  0  0  0  0  0  0  0  0
   21.1200   -2.3971    0.0000 O   0  0  0  0  0  0  0  0  0  0  0  0
   18.6200   -1.5311    0.0000 O   0  0  0  0  0  0  0  0  0  0  0  0
   16.6200    0.2010    0.0000 O   0  0  0  0  0  0  0  0  0  0  0  0
   14.1200    1.0670    0.0000 O   0  0  0  0  0  0  0  0  0  0  0  0
   12.1200    2.7990    0.0000 O   0  0  0  0  0  0  0  0  0  0  0  0
    9.6200    3.6651    0.0000 O   0  0  0  0  0  0  0  0  0  0  0  0
    7.6200    5.3971    0.0000 O   0  0  0  0  0  0  0  0  0  0  0  0
    5.1200    6.2631    0.0000 O   0  0  0  0  0  0  0  0  0  0  0  0
   24.1200   -4.1292    0.0000 C   0  0  0  0  0  0  0  0  0  0  0  0
   24.1200   -5.1292    0.0000 C   0  0  0  0  0  0  0  0  0  0  0  0
   24.1200   -3.1292    0.0000 C   0  0  0  0  0  0  0  0  0  0  0  0
   25.1200   -4.1292    0.0000 C   0  0  0  0  0  0  0  0  0  0  0  0
   22.6200   -3.2631    0.0000 C   0  0  0  0  0  0  0  0  0  0  0  0
   24.9860   -5.6292    0.0000 C   0  0  0  0  0  0  0  0  0  0  0  0
   24.9860   -2.6292    0.0000 C   0  0  0  0  0  0  0  0  0  0  0  0
   25.6200   -4.9952    0.0000 C   0  0  0  0  0  0  0  0  0  0  0  0
   23.2540   -5.6292    0.0000 C   0  0  0  0  0  0  0  0  0  0  0  0
   23.2540   -2.6292    0.0000 C   0  0  0  0  0  0  0  0  0  0  0  0
   25.6200   -3.2631    0.0000 C   0  0  0  0  0  0  0  0  0  0  0  0
   21.6200   -3.2631    0.0000 C   0  0  0  0  0  0  0  0  0  0  0  0
   24.9860   -6.6292    0.0000 C   0  0  0  0  0  0  0  0  0  0  0  0
   24.9860   -1.6292    0.0000 C   0  0  0  0  0  0  0  0  0  0  0  0
   26.6200   -4.9952    0.0000 C   0  0  0  0  0  0  0  0  0  0  0  0
   23.2540   -6.6292    0.0000 C   0  0  0  0  0  0  0  0  0  0  0  0
   23.2540   -1.6292    0.0000 C   0  0  0  0  0  0  0  0  0  0  0  0
   26.6200   -3.2631    0.0000 C   0  0  0  0  0  0  0  0  0  0  0  0
   24.1200   -7.1292    0.0000 C   0  0  0  0  0  0  0  0  0  0  0  0
   24.1200   -1.1292    0.0000 C   0  0  0  0  0  0  0  0  0  0  0  0
   27.1200   -4.1292    0.0000 C   0  0  0  0  0  0  0  0  0  0  0  0
   20.1200   -2.3971    0.0000 C   0  0  0  0  0  0  0  0  0  0  0  0
   19.6200   -1.5311    0.0000 C   0  0  0  0  0  0  0  0  0  0  0  0
   18.1200   -0.6651    0.0000 C   0  0  0  0  0  0  0  0  0  0  0  0
   17.1200   -0.6651    0.0000 C   0  0  0  0  0  0  0  0  0  0  0  0
   15.6200    0.2010    0.0000 C   0  0  0  0  0  0  0  0  0  0  0  0
   15.1200    1.0670    0.0000 C   0  0  0  0  0  0  0  0  0  0  0  0
   13.6200    1.9330    0.0000 C   0  0  0  0  0  0  0  0  0  0  0  0
   12.6200    1.9330    0.0000 C   0  0  0  0  0  0  0  0  0  0  0  0
   11.1200    2.7990    0.0000 C   0  0  0  0  0  0  0  0  0  0  0  0
   10.6200    3.6651    0.0000 C   0  0  0  0  0  0  0  0  0  0  0  0
    9.1200    4.5311    0.0000 C   0  0  0  0  0  0  0  0  0  0  0  0
    8.1200    4.5311    0.0000 C   0  0  0  0  0  0  0  0  0  0  0  0
    6.6200    5.3971    0.0000 C   0  0  0  0  0  0  0  0  0  0  0  0
    6.1200    6.2631    0.0000 C   0  0  0  0  0  0  0  0  0  0  0  0
    4.6200    7.1292    0.0000 C   0  0  0  0  0  0  0  0  0  0  0  0
    3.6200    7.1292    0.0000 C   0  0  0  0  0  0  0  0  0  0  0  0
    2.6200    7.1292    0.0000 C   0  0  0  0  0  0  0  0  0  0  0  0
   23.2026   -3.0511    0.0000 H   0  0  0  0  0  0  0  0  0  0  0  0
   22.5123   -2.6526    0.0000 H   0  0  0  0  0  0  0  0  0  0  0  0
   25.5230   -5.3192    0.0000 H   0  0  0  0  0  0  0  0  0  0  0  0
   25.5230   -2.9392    0.0000 H   0  0  0  0  0  0  0  0  0  0  0  0
   25.3100   -5.5321    0.0000 H   0  0  0  0  0  0  0  0  0  0  0  0
   22.7170   -5.3192    0.0000 H   0  0  0  0  0  0  0  0  0  0  0  0
   22.7170   -2.9392    0.0000 H   0  0  0  0  0  0  0  0  0  0  0  0
   25.3100   -2.7262    0.0000 H   0  0  0  0  0  0  0  0  0  0  0  0
   21.0374   -3.4752    0.0000 H   0  0  0  0  0  0  0  0  0  0  0  0
   21.7277   -3.8737    0.0000 H   0  0  0  0  0  0  0  0  0  0  0  0
   25.5230   -6.9392    0.0000 H   0  0  0  0  0  0  0  0  0  0  0  0
   25.5230   -1.3192    0.0000 H   0  0  0  0  0  0  0  0  0  0  0  0
   26.9300   -5.5321    0.0000 H   0  0  0  0  0  0  0  0  0  0  0  0
   22.7170   -6.9392    0.0000 H   0  0  0  0  0  0  0  0  0  0  0  0
   22.7170   -1.3192    0.0000 H   0  0  0  0  0  0  0  0  0  0  0  0
   26.9300   -2.7262    0.0000 H   0  0  0  0  0  0  0  0  0  0  0  0
   24.1200   -7.7492    0.0000 H   0  0  0  0  0  0  0  0  0  0  0  0
   24.1200   -0.5092    0.0000 H   0  0  0  0  0  0  0  0  0  0  0  0
   27.7400   -4.1292    0.0000 H   0  0  0  0  0  0  0  0  0  0  0  0
   19.5374   -2.6092    0.0000 H   0  0  0  0  0  0  0  0  0  0  0  0
   20.2277   -3.0077    0.0000 H   0  0  0  0  0  0  0  0  0  0  0  0
   20.2026   -1.3190    0.0000 H   0  0  0  0  0  0  0  0  0  0  0  0
   19.5123   -0.9205    0.0000 H   0  0  0  0  0  0  0  0  0  0  0  0
   18.7026   -0.4530    0.0000 H   0  0  0  0  0  0  0  0  0  0  0  0
   18.0123   -0.0545    0.0000 H   0  0  0  0  0  0  0  0  0  0  0  0
   16.5374   -0.8771    0.0000 H   0  0  0  0  0  0  0  0  0  0  0  0
   17.2277   -1.2756    0.0000 H   0  0  0  0  0  0  0  0  0  0  0  0
   15.0374   -0.0111    0.0000 H   0  0  0  0  0  0  0  0  0  0  0  0
   15.7277   -0.4096    0.0000 H   0  0  0  0  0  0  0  0  0  0  0  0
   15.7026    1.2790    0.0000 H   0  0  0  0  0  0  0  0  0  0  0  0
   15.0123    1.6776    0.0000 H   0  0  0  0  0  0  0  0  0  0  0  0
   14.2026    2.1451    0.0000 H   0  0  0  0  0  0  0  0  0  0  0  0
   13.5123    2.5436    0.0000 H   0  0  0  0  0  0  0  0  0  0  0  0
   12.0374    1.7210    0.0000 H   0  0  0  0  0  0  0  0  0  0  0  0
   12.7277    1.3224    0.0000 H   0  0  0  0  0  0  0  0  0  0  0  0
   10.5374    2.5870    0.0000 H   0  0  0  0  0  0  0  0  0  0  0  0
   11.2277    2.1885    0.0000 H   0  0  0  0  0  0  0  0  0  0  0  0
   11.2026    3.8771    0.0000 H   0  0  0  0  0  0  0  0  0  0  0  0
   10.5123    4.2756    0.0000 H   0  0  0  0  0  0  0  0  0  0  0  0
    9.7026    4.7431    0.0000 H   0  0  0  0  0  0  0  0  0  0  0  0
    9.0123    5.1417    0.0000 H   0  0  0  0  0  0  0  0  0  0  0  0
    7.5374    4.3190    0.0000 H   0  0  0  0  0  0  0  0  0  0  0  0
    8.2277    3.9205    0.0000 H   0  0  0  0  0  0  0  0  0  0  0  0
    6.0374    5.1851    0.0000 H   0  0  0  0  0  0  0  0  0  0  0  0
    6.7277    4.7865    0.0000 H   0  0  0  0  0  0  0  0  0  0  0  0
    6.7026    6.4752    0.0000 H   0  0  0  0  0  0  0  0  0  0  0  0
    6.0123    6.8737    0.0000 H   0  0  0  0  0  0  0  0  0  0  0  0
    5.2026    7.3412    0.0000 H   0  0  0  0  0  0  0  0  0  0  0  0
    4.5123    7.7398    0.0000 H   0  0  0  0  0  0  0  0  0  0  0  0
    2.0000    7.1292    0.0000 H   0  0  0  0  0  0  0  0  0  0  0  0
  1 10  1  0  0  0  0
  1 14  1  0  0  0  0
  2 21  1  0  0  0  0
  2 31  1  0  0  0  0
  3 32  1  0  0  0  0
  3 33  1  0  0  0  0
  4 34  1  0  0  0  0
  4 35  1  0  0  0  0
  5 36  1  0  0  0  0
  5 37  1  0  0  0  0
  6 38  1  0  0  0  0
  6 39  1  0  0  0  0
  7 40  1  0  0  0  0
  7 41  1  0  0  0  0
  8 42  1  0  0  0  0
  8 43  1  0  0  0  0
  9 44  1  0  0  0  0
  9 45  1  0  0  0  0
 10 11  1  0  0  0  0
 10 12  1  0  0  0  0
 10 13  1  0  0  0  0
 11 15  2  0  0  0  0
 11 18  1  0  0  0  0
 12 16  2  0  0  0  0
 12 19  1  0  0  0  0
 13 17  2  0  0  0  0
 13 20  1  0  0  0  0
 14 21  1  0  0  0  0
 14 48  1  0  0  0  0
 14 49  1  0  0  0  0
 15 22  1  0  0  0  0
 15 50  1  0  0  0  0
 16 23  1  0  0  0  0
 16 51  1  0  0  0  0
 17 24  1  0  0  0  0
 17 52  1  0  0  0  0
 18 25  2  0  0  0  0
 18 53  1  0  0  0  0
 19 26  2  0  0  0  0
 19 54  1  0  0  0  0
 20 27  2  0  0  0  0
 20 55  1  0  0  0  0
 21 56  1  0  0  0  0
 21 57  1  0  0  0  0
 22 28  2  0  0  0  0
 22 58  1  0  0  0  0
 23 29  2  0  0  0  0
 23 59  1  0  0  0  0
 24 30  2  0  0  0  0
 24 60  1  0  0  0  0
 25 28  1  0  0  0  0
 25 61  1  0  0  0  0
 26 29  1  0  0  0  0
 26 62  1  0  0  0  0
 27 30  1  0  0  0  0
 27 63  1  0  0  0  0
 28 64  1  0  0  0  0
 29 65  1  0  0  0  0
 30 66  1  0  0  0  0
 31 32  1  0  0  0  0
 31 67  1  0  0  0  0
 31 68  1  0  0  0  0
 32 69  1  0  0  0  0
 32 70  1  0  0  0  0
 33 34  1  0  0  0  0
 33 71  1  0  0  0  0
 33 72  1  0  0  0  0
 34 73  1  0  0  0  0
 34 74  1  0  0  0  0
 35 36  1  0  0  0  0
 35 75  1  0  0  0  0
 35 76  1  0  0  0  0
 36 77  1  0  0  0  0
 36 78  1  0  0  0  0
 37 38  1  0  0  0  0
 37 79  1  0  0  0  0
 37 80  1  0  0  0  0
 38 81  1  0  0  0  0
 38 82  1  0  0  0  0
 39 40  1  0  0  0  0
 39 83  1  0  0  0  0
 39 84  1  0  0  0  0
 40 85  1  0  0  0  0
 40 86  1  0  0  0  0
 41 42  1  0  0  0  0
 41 87  1  0  0  0  0
 41 88  1  0  0  0  0
 42 89  1  0  0  0  0
 42 90  1  0  0  0  0
 43 44  1  0  0  0  0
 43 91  1  0  0  0  0
 43 92  1  0  0  0  0
 44 93  1  0  0  0  0
 44 94  1  0  0  0  0
 45 46  1  0  0  0  0
 45 95  1  0  0  0  0
 45 96  1  0  0  0  0
 46 47  3  0  0  0  0
 47 97  1  0  0  0  0
M  END
> <PUBCHEM_COMPOUND_CID>
56945852

> <PUBCHEM_COMPOUND_CANONICALIZED>
1

> <PUBCHEM_CACTVS_COMPLEXITY>
708

> <PUBCHEM_CACTVS_HBOND_ACCEPTOR>
9

> <PUBCHEM_CACTVS_HBOND_DONOR>
0

> <PUBCHEM_CACTVS_ROTATABLE_BOND>
29

> <PUBCHEM_CACTVS_SUBSKEYS>
AAADcfB8PAAAAAAAAAAAAAAAAAAAAAAAAAAwYMAAAAAAAAABUAAAGgAAAAAADESgmAIwAIAABADAGiBCAAACAAAgAAAIiAAACIgJJiKAMRiCMAAkwAEKqAeAwOAOgAAAAAAAAAAAAAAAAAAAAAAAAAAAAA==

> <PUBCHEM_IUPAC_OPENEYE_NAME>
[diphenyl-[2-[2-[2-[2-[2-[2-[2-(2-prop-2-ynoxyethoxy)ethoxy]ethoxy]ethoxy]ethoxy]ethoxy]ethoxy]ethoxy]methyl]benzene

> <PUBCHEM_IUPAC_CAS_NAME>
[diphenyl-[2-[2-[2-[2-[2-[2-[2-(2-prop-2-ynoxyethoxy)ethoxy]ethoxy]ethoxy]ethoxy]ethoxy]ethoxy]ethoxy]methyl]benzene

> <PUBCHEM_IUPAC_NAME_MARKUP>
[diphenyl-[2-[2-[2-[2-[2-[2-[2-(2-prop-2-ynoxyethoxy)ethoxy]ethoxy]ethoxy]ethoxy]ethoxy]ethoxy]ethoxy]methyl]benzene

> <PUBCHEM_IUPAC_NAME>
[diphenyl-[2-[2-[2-[2-[2-[2-[2-(2-prop-2-ynoxyethoxy)ethoxy]ethoxy]ethoxy]ethoxy]ethoxy]ethoxy]ethoxy]methyl]benzene

> <PUBCHEM_IUPAC_SYSTEMATIC_NAME>
[diphenyl-[2-[2-[2-[2-[2-[2-[2-(2-prop-2-ynoxyethoxy)ethoxy]ethoxy]ethoxy]ethoxy]ethoxy]ethoxy]ethoxy]methyl]benzene

> <PUBCHEM_IUPAC_TRADITIONAL_NAME>
[diphenyl-[2-[2-[2-[2-[2-[2-[2-(2-propargyloxyethoxy)ethoxy]ethoxy]ethoxy]ethoxy]ethoxy]ethoxy]ethoxy]methyl]benzene

> <PUBCHEM_IUPAC_INCHI>
InChI=1S/C38H50O9/c1-2-18-39-19-20-40-21-22-41-23-24-42-25-26-43-27-28-44-29-30-45-31-32-46-33-34-47-38(35-12-6-3-7-13-35,36-14-8-4-9-15-36)37-16-10-5-11-17-37/h1,3-17H,18-34H2

> <PUBCHEM_IUPAC_INCHIKEY>
OHUVMDRDHHLYBP-UHFFFAOYSA-N

> <PUBCHEM_XLOGP3_AA>
3.7

> <PUBCHEM_EXACT_MASS>
650.34548317

> <PUBCHEM_MOLECULAR_FORMULA>
C38H50O9

> <PUBCHEM_MOLECULAR_WEIGHT>
650.8

> <PUBCHEM_OPENEYE_CAN_SMILES>
C#CCOCCOCCOCCOCCOCCOCCOCCOCCOC(C1=CC=CC=C1)(C2=CC=CC=C2)C3=CC=CC=C3

> <PUBCHEM_OPENEYE_ISO_SMILES>
C#CCOCCOCCOCCOCCOCCOCCOCCOCCOC(C1=CC=CC=C1)(C2=CC=CC=C2)C3=CC=CC=C3

> <PUBCHEM_CACTVS_TPSA>
83.1

> <PUBCHEM_MONOISOTOPIC_WEIGHT>
650.34548317

> <PUBCHEM_TOTAL_CHARGE>
0

> <PUBCHEM_HEAVY_ATOM_COUNT>
47

> <PUBCHEM_ATOM_DEF_STEREO_COUNT>
0

> <PUBCHEM_ATOM_UDEF_STEREO_COUNT>
0

> <PUBCHEM_BOND_DEF_STEREO_COUNT>
0

> <PUBCHEM_BOND_UDEF_STEREO_COUNT>
0

> <PUBCHEM_ISOTOPIC_ATOM_COUNT>
0

> <PUBCHEM_COMPONENT_COUNT>
1

> <PUBCHEM_CACTVS_TAUTO_COUNT>
-1

> <PUBCHEM_COORDINATE_TYPE>
1
5
255

> <PUBCHEM_BONDANNOTATIONS>
11  15  8
11  18  8
12  16  8
12  19  8
13  17  8
13  20  8
15  22  8
16  23  8
17  24  8
18  25  8
19  26  8
20  27  8
22  28  8
23  29  8
24  30  8
25  28  8
26  29  8
27  30  8

$$$$
