 
  -OEChem-10192103452D

 86 89  0     1  0  0  0  0  0999 V2000
    9.7942   -2.7500    0.0000 O   0  0  0  0  0  0  0  0  0  0  0  0
    9.7942    0.2500    0.0000 O   0  0  0  0  0  0  0  0  0  0  0  0
   11.5263   -2.7500    0.0000 O   0  0  0  0  0  0  0  0  0  0  0  0
    8.0622   -1.7500    0.0000 O   0  0  0  0  0  0  0  0  0  0  0  0
   11.5263   -1.7500    0.0000 O   0  0  0  0  0  0  0  0  0  0  0  0
   11.5263    0.2500    0.0000 O   0  0  0  0  0  0  0  0  0  0  0  0
    9.7942   -4.7500    0.0000 O   0  0  0  0  0  0  0  0  0  0  0  0
   11.5263   -5.7500    0.0000 O   0  0  0  0  0  0  0  0  0  0  0  0
   13.2583   -4.7500    0.0000 O   0  0  0  0  0  0  0  0  0  0  0  0
    8.0622    1.2500    0.0000 O   0  0  0  0  0  0  0  0  0  0  0  0
   14.1244   -3.2500    0.0000 O   0  0  0  0  0  0  0  0  0  0  0  0
    7.1962   -0.2500    0.0000 O   0  0  0  0  0  0  0  0  0  0  0  0
   12.3923   -0.2500    0.0000 O   0  0  0  0  0  0  0  0  0  0  0  0
   14.1244    4.7500    0.0000 O   0  0  0  0  0  0  0  0  0  0  0  0
   12.3923    5.7500    0.0000 O   0  0  0  0  0  0  0  0  0  0  0  0
    2.0000   -1.2500    0.0000 O   0  0  0  0  0  0  0  0  0  0  0  0
    2.0000   -3.2500    0.0000 O   0  0  0  0  0  0  0  0  0  0  0  0
    9.7942   -1.7500    0.0000 C   0  0  1  0  0  0  0  0  0  0  0  0
    8.9282   -1.2500    0.0000 C   0  0  1  0  0  0  0  0  0  0  0  0
   10.6603   -1.2500    0.0000 C   0  0  2  0  0  0  0  0  0  0  0  0
    8.9282   -0.2500    0.0000 C   0  0  1  0  0  0  0  0  0  0  0  0
   10.6603   -3.2500    0.0000 C   0  0  2  0  0  0  0  0  0  0  0  0
   10.6603   -0.2500    0.0000 C   0  0  1  0  0  0  0  0  0  0  0  0
   10.6603   -4.2500    0.0000 C   0  0  1  0  0  0  0  0  0  0  0  0
   11.5263   -4.7500    0.0000 C   0  0  2  0  0  0  0  0  0  0  0  0
   12.3923   -4.2500    0.0000 C   0  0  1  0  0  0  0  0  0  0  0  0
   12.3923   -3.2500    0.0000 C   0  0  1  0  0  0  0  0  0  0  0  0
    8.0622    0.2500    0.0000 C   0  0  0  0  0  0  0  0  0  0  0  0
   13.2583   -2.7500    0.0000 C   0  0  0  0  0  0  0  0  0  0  0  0
   11.5263    1.2500    0.0000 C   0  0  0  0  0  0  0  0  0  0  0  0
    7.1962   -1.2500    0.0000 C   0  0  0  0  0  0  0  0  0  0  0  0
   12.3923   -1.2500    0.0000 C   0  0  0  0  0  0  0  0  0  0  0  0
   12.3923    1.7500    0.0000 C   0  0  0  0  0  0  0  0  0  0  0  0
   13.2583   -1.7500    0.0000 C   0  0  0  0  0  0  0  0  0  0  0  0
    6.3301   -1.7500    0.0000 C   0  0  0  0  0  0  0  0  0  0  0  0
   12.3923    2.7500    0.0000 C   0  0  0  0  0  0  0  0  0  0  0  0
    5.4641   -1.2500    0.0000 C   0  0  0  0  0  0  0  0  0  0  0  0
   13.2583    3.2500    0.0000 C   0  0  0  0  0  0  0  0  0  0  0  0
   11.5263    3.2500    0.0000 C   0  0  0  0  0  0  0  0  0  0  0  0
   13.2583    4.2500    0.0000 C   0  0  0  0  0  0  0  0  0  0  0  0
   11.5263    4.2500    0.0000 C   0  0  0  0  0  0  0  0  0  0  0  0
    4.5981   -1.7500    0.0000 C   0  0  0  0  0  0  0  0  0  0  0  0
   12.3923    4.7500    0.0000 C   0  0  0  0  0  0  0  0  0  0  0  0
    3.7320   -1.2500    0.0000 C   0  0  0  0  0  0  0  0  0  0  0  0
    4.5981   -2.7500    0.0000 C   0  0  0  0  0  0  0  0  0  0  0  0
    2.8660   -1.7500    0.0000 C   0  0  0  0  0  0  0  0  0  0  0  0
    3.7320   -3.2500    0.0000 C   0  0  0  0  0  0  0  0  0  0  0  0
    2.8660   -2.7500    0.0000 C   0  0  0  0  0  0  0  0  0  0  0  0
   10.3312   -2.0600    0.0000 H   0  0  0  0  0  0  0  0  0  0  0  0
    8.9282   -1.8700    0.0000 H   0  0  0  0  0  0  0  0  0  0  0  0
   10.6603   -1.8700    0.0000 H   0  0  0  0  0  0  0  0  0  0  0  0
    8.9282    0.3700    0.0000 H   0  0  0  0  0  0  0  0  0  0  0  0
   10.6603   -2.6300    0.0000 H   0  0  0  0  0  0  0  0  0  0  0  0
   11.1972   -0.5600    0.0000 H   0  0  0  0  0  0  0  0  0  0  0  0
   10.6603   -4.8700    0.0000 H   0  0  0  0  0  0  0  0  0  0  0  0
   12.0632   -5.0600    0.0000 H   0  0  0  0  0  0  0  0  0  0  0  0
   12.9292   -3.9400    0.0000 H   0  0  0  0  0  0  0  0  0  0  0  0
   12.3923   -2.6300    0.0000 H   0  0  0  0  0  0  0  0  0  0  0  0
    7.4516    0.3577    0.0000 H   0  0  0  0  0  0  0  0  0  0  0  0
    7.8501   -0.3326    0.0000 H   0  0  0  0  0  0  0  0  0  0  0  0
   13.6569   -2.2750    0.0000 H   0  0  0  0  0  0  0  0  0  0  0  0
   12.8598   -2.2750    0.0000 H   0  0  0  0  0  0  0  0  0  0  0  0
    9.7942   -5.3700    0.0000 H   0  0  0  0  0  0  0  0  0  0  0  0
   12.0632   -6.0600    0.0000 H   0  0  0  0  0  0  0  0  0  0  0  0
   13.7953   -4.4400    0.0000 H   0  0  0  0  0  0  0  0  0  0  0  0
   11.3142    1.8326    0.0000 H   0  0  0  0  0  0  0  0  0  0  0  0
   10.9157    1.1423    0.0000 H   0  0  0  0  0  0  0  0  0  0  0  0
    7.5252    1.5600    0.0000 H   0  0  0  0  0  0  0  0  0  0  0  0
   12.6044    1.1674    0.0000 H   0  0  0  0  0  0  0  0  0  0  0  0
   13.0029    1.8577    0.0000 H   0  0  0  0  0  0  0  0  0  0  0  0
   14.6613   -2.9400    0.0000 H   0  0  0  0  0  0  0  0  0  0  0  0
   12.9483   -2.2869    0.0000 H   0  0  0  0  0  0  0  0  0  0  0  0
   13.7953   -2.0600    0.0000 H   0  0  0  0  0  0  0  0  0  0  0  0
   13.5683   -1.2131    0.0000 H   0  0  0  0  0  0  0  0  0  0  0  0
    6.3301   -2.3700    0.0000 H   0  0  0  0  0  0  0  0  0  0  0  0
    5.4641   -0.6300    0.0000 H   0  0  0  0  0  0  0  0  0  0  0  0
   13.7953    2.9400    0.0000 H   0  0  0  0  0  0  0  0  0  0  0  0
   10.9893    2.9400    0.0000 H   0  0  0  0  0  0  0  0  0  0  0  0
   10.9893    4.5600    0.0000 H   0  0  0  0  0  0  0  0  0  0  0  0
    3.7320   -0.6300    0.0000 H   0  0  0  0  0  0  0  0  0  0  0  0
    5.1350   -3.0600    0.0000 H   0  0  0  0  0  0  0  0  0  0  0  0
   14.6613    4.4400    0.0000 H   0  0  0  0  0  0  0  0  0  0  0  0
   11.8554    6.0600    0.0000 H   0  0  0  0  0  0  0  0  0  0  0  0
    3.7320   -3.8700    0.0000 H   0  0  0  0  0  0  0  0  0  0  0  0
    2.0000   -0.6300    0.0000 H   0  0  0  0  0  0  0  0  0  0  0  0
    2.0000   -3.8700    0.0000 H   0  0  0  0  0  0  0  0  0  0  0  0
 18  1  1  1  0  0  0
 22  1  1  6  0  0  0
  2 21  1  0  0  0  0
  2 23  1  0  0  0  0
  3 22  1  0  0  0  0
  3 27  1  0  0  0  0
 19  4  1  6  0  0  0
  4 31  1  0  0  0  0
 20  5  1  6  0  0  0
  5 32  1  0  0  0  0
 23  6  1  1  0  0  0
  6 30  1  0  0  0  0
 24  7  1  1  0  0  0
  7 63  1  0  0  0  0
 25  8  1  6  0  0  0
  8 64  1  0  0  0  0
 26  9  1  1  0  0  0
  9 65  1  0  0  0  0
 10 28  1  0  0  0  0
 10 68  1  0  0  0  0
 11 29  1  0  0  0  0
 11 71  1  0  0  0  0
 12 31  2  0  0  0  0
 13 32  2  0  0  0  0
 14 40  1  0  0  0  0
 14 82  1  0  0  0  0
 15 43  1  0  0  0  0
 15 83  1  0  0  0  0
 16 46  1  0  0  0  0
 16 85  1  0  0  0  0
 17 48  1  0  0  0  0
 17 86  1  0  0  0  0
 18 19  1  0  0  0  0
 18 20  1  0  0  0  0
 18 49  1  0  0  0  0
 19 21  1  0  0  0  0
 19 50  1  0  0  0  0
 20 23  1  0  0  0  0
 20 51  1  0  0  0  0
 21 28  1  1  0  0  0
 21 52  1  0  0  0  0
 22 24  1  0  0  0  0
 22 53  1  0  0  0  0
 23 54  1  0  0  0  0
 24 25  1  0  0  0  0
 24 55  1  0  0  0  0
 25 26  1  0  0  0  0
 25 56  1  0  0  0  0
 26 27  1  0  0  0  0
 26 57  1  0  0  0  0
 27 29  1  6  0  0  0
 27 58  1  0  0  0  0
 28 59  1  0  0  0  0
 28 60  1  0  0  0  0
 29 61  1  0  0  0  0
 29 62  1  0  0  0  0
 30 33  1  0  0  0  0
 30 66  1  0  0  0  0
 30 67  1  0  0  0  0
 31 35  1  0  0  0  0
 32 34  1  0  0  0  0
 33 36  1  0  0  0  0
 33 69  1  0  0  0  0
 33 70  1  0  0  0  0
 34 72  1  0  0  0  0
 34 73  1  0  0  0  0
 34 74  1  0  0  0  0
 35 37  2  0  0  0  0
 35 75  1  0  0  0  0
 36 38  2  0  0  0  0
 36 39  1  0  0  0  0
 37 42  1  0  0  0  0
 37 76  1  0  0  0  0
 38 40  1  0  0  0  0
 38 77  1  0  0  0  0
 39 41  2  0  0  0  0
 39 78  1  0  0  0  0
 40 43  2  0  0  0  0
 41 43  1  0  0  0  0
 41 79  1  0  0  0  0
 42 44  2  0  0  0  0
 42 45  1  0  0  0  0
 44 46  1  0  0  0  0
 44 80  1  0  0  0  0
 45 47  2  0  0  0  0
 45 81  1  0  0  0  0
 46 48  2  0  0  0  0
 47 48  1  0  0  0  0
 47 84  1  0  0  0  0
M  END
> <PUBCHEM_COMPOUND_CID>
10032513

> <PUBCHEM_COMPOUND_CANONICALIZED>
1

> <PUBCHEM_CACTVS_COMPLEXITY>
1060

> <PUBCHEM_CACTVS_HBOND_ACCEPTOR>
17

> <PUBCHEM_CACTVS_HBOND_DONOR>
9

> <PUBCHEM_CACTVS_ROTATABLE_BOND>
14

> <PUBCHEM_CACTVS_SUBSKEYS>
AAADcfB4PgAAAAAAAAAAAAAAAAAAAAAAAAA0aIEAAAAAAAABQAAAGgAACAAADBSwmAMyDoAABgCIAiDSCAACAAAgIAAIiAAGiMgZNiKCMRKicAElwBEPuYfA4LwOIAABAAAAQABAAAIAAACAAAAAAAAAAA==

> <PUBCHEM_IUPAC_OPENEYE_NAME>
[(2R,3R,4S,5R,6R)-5-acetoxy-6-[2-(3,4-dihydroxyphenyl)ethoxy]-2-(hydroxymethyl)-4-[(2S,3R,4S,5S,6R)-3,4,5-trihydroxy-6-(hydroxymethyl)tetrahydropyran-2-yl]oxy-tetrahydropyran-3-yl] (E)-3-(3,4-dihydroxyphenyl)prop-2-enoate

> <PUBCHEM_IUPAC_CAS_NAME>
(E)-3-(3,4-dihydroxyphenyl)-2-propenoic acid [(2R,3R,4S,5R,6R)-5-acetyloxy-6-[2-(3,4-dihydroxyphenyl)ethoxy]-2-(hydroxymethyl)-4-[[(2S,3R,4S,5S,6R)-3,4,5-trihydroxy-6-(hydroxymethyl)-2-oxanyl]oxy]-3-oxanyl] ester

> <PUBCHEM_IUPAC_NAME_MARKUP>
[(2<I>R</I>,3<I>R</I>,4<I>S</I>,5<I>R</I>,6<I>R</I>)-5-acetyloxy-6-[2-(3,4-dihydroxyphenyl)ethoxy]-2-(hydroxymethyl)-4-[(2<I>S</I>,3<I>R</I>,4<I>S</I>,5<I>S</I>,6<I>R</I>)-3,4,5-trihydroxy-6-(hydroxymethyl)oxan-2-yl]oxyoxan-3-yl] (<I>E</I>)-3-(3,4-dihydroxyphenyl)prop-2-enoate

> <PUBCHEM_IUPAC_NAME>
[(2R,3R,4S,5R,6R)-5-acetyloxy-6-[2-(3,4-dihydroxyphenyl)ethoxy]-2-(hydroxymethyl)-4-[(2S,3R,4S,5S,6R)-3,4,5-trihydroxy-6-(hydroxymethyl)oxan-2-yl]oxyoxan-3-yl] (E)-3-(3,4-dihydroxyphenyl)prop-2-enoate

> <PUBCHEM_IUPAC_SYSTEMATIC_NAME>
[(2R,3R,4S,5R,6R)-5-acetyloxy-6-[2-[3,4-bis(oxidanyl)phenyl]ethoxy]-2-(hydroxymethyl)-4-[(2S,3R,4S,5S,6R)-6-(hydroxymethyl)-3,4,5-tris(oxidanyl)oxan-2-yl]oxy-oxan-3-yl] (E)-3-[3,4-bis(oxidanyl)phenyl]prop-2-enoate

> <PUBCHEM_IUPAC_TRADITIONAL_NAME>
(E)-3-(3,4-dihydroxyphenyl)acrylic acid [(2R,3R,4S,5R,6R)-5-acetoxy-6-[2-(3,4-dihydroxyphenyl)ethoxy]-2-methylol-4-[(2S,3R,4S,5S,6R)-3,4,5-trihydroxy-6-methylol-tetrahydropyran-2-yl]oxy-tetrahydropyran-3-yl] ester

> <PUBCHEM_IUPAC_INCHI>
InChI=1S/C31H38O17/c1-14(34)44-29-28(48-30-26(42)25(41)24(40)21(12-32)45-30)27(47-23(39)7-4-15-2-5-17(35)19(37)10-15)22(13-33)46-31(29)43-9-8-16-3-6-18(36)20(38)11-16/h2-7,10-11,21-22,24-33,35-38,40-42H,8-9,12-13H2,1H3/b7-4+/t21-,22-,24-,25+,26-,27-,28+,29-,30+,31-/m1/s1

> <PUBCHEM_IUPAC_INCHIKEY>
MZVDYSACVXHBRR-MPDYNHRFSA-N

> <PUBCHEM_XLOGP3_AA>
-0.4

> <PUBCHEM_EXACT_MASS>
682.21089974

> <PUBCHEM_MOLECULAR_FORMULA>
C31H38O17

> <PUBCHEM_MOLECULAR_WEIGHT>
682.6

> <PUBCHEM_OPENEYE_CAN_SMILES>
CC(=O)OC1C(C(C(OC1OCCC2=CC(=C(C=C2)O)O)CO)OC(=O)C=CC3=CC(=C(C=C3)O)O)OC4C(C(C(C(O4)CO)O)O)O

> <PUBCHEM_OPENEYE_ISO_SMILES>
CC(=O)O[C@@H]1[C@H]([C@@H]([C@H](O[C@H]1OCCC2=CC(=C(C=C2)O)O)CO)OC(=O)/C=C/C3=CC(=C(C=C3)O)O)O[C@H]4[C@@H]([C@H]([C@@H]([C@H](O4)CO)O)O)O

> <PUBCHEM_CACTVS_TPSA>
272

> <PUBCHEM_MONOISOTOPIC_WEIGHT>
682.21089974

> <PUBCHEM_TOTAL_CHARGE>
0

> <PUBCHEM_HEAVY_ATOM_COUNT>
48

> <PUBCHEM_ATOM_DEF_STEREO_COUNT>
10

> <PUBCHEM_ATOM_UDEF_STEREO_COUNT>
0

> <PUBCHEM_BOND_DEF_STEREO_COUNT>
1

> <PUBCHEM_BOND_UDEF_STEREO_COUNT>
0

> <PUBCHEM_ISOTOPIC_ATOM_COUNT>
0

> <PUBCHEM_COMPONENT_COUNT>
1

> <PUBCHEM_CACTVS_TAUTO_COUNT>
-1

> <PUBCHEM_COORDINATE_TYPE>
1
5
255

> <PUBCHEM_BONDANNOTATIONS>
18  1  5
22  1  6
21  28  5
27  29  6
36  38  8
36  39  8
38  40  8
39  41  8
19  4  6
40  43  8
41  43  8
42  44  8
42  45  8
44  46  8
45  47  8
46  48  8
47  48  8
20  5  6
23  6  5
24  7  5
25  8  6
26  9  5

$$$$
