 
  -OEChem-10192104442D

 90 95  0     1  0  0  0  0  0999 V2000
    6.0580   -0.4747    0.0000 O   0  0  0  0  0  0  0  0  0  0  0  0
    8.9765    0.4736    0.0000 O   0  0  0  0  0  0  0  0  0  0  0  0
    6.8671   -5.0625    0.0000 O   0  0  0  0  0  0  0  0  0  0  0  0
    8.1797    5.0586    0.0000 O   0  0  0  0  0  0  0  0  0  0  0  0
    5.1350   -5.0625    0.0000 O   0  0  0  0  0  0  0  0  0  0  0  0
    6.4477    5.0616    0.0000 O   0  0  0  0  0  0  0  0  0  0  0  0
    5.1350   -4.0625    0.0000 O   0  0  0  0  0  0  0  0  0  0  0  0
    9.9100    4.0556    0.0000 O   0  0  0  0  0  0  0  0  0  0  0  0
    6.8671   -7.0625    0.0000 O   0  0  0  0  0  0  0  0  0  0  0  0
    8.1832    7.0586    0.0000 O   0  0  0  0  0  0  0  0  0  0  0  0
    5.1350   -8.0625    0.0000 O   0  0  0  0  0  0  0  0  0  0  0  0
    6.4529    8.0616    0.0000 O   0  0  0  0  0  0  0  0  0  0  0  0
    3.4030   -7.0625    0.0000 O   0  0  0  0  0  0  0  0  0  0  0  0
    4.7191    7.0646    0.0000 O   0  0  0  0  0  0  0  0  0  0  0  0
    2.5369   -5.5625    0.0000 O   0  0  0  0  0  0  0  0  0  0  0  0
    3.8505    5.5661    0.0000 O   0  0  0  0  0  0  0  0  0  0  0  0
    7.6761   -0.4747    0.0000 C   0  0  1  0  0  0  0  0  0  0  0  0
    7.3671    0.4764    0.0000 C   0  0  1  0  0  0  0  0  0  0  0  0
    6.8671   -1.0625    0.0000 C   0  0  1  0  0  0  0  0  0  0  0  0
    8.1728    1.0586    0.0000 C   0  0  1  0  0  0  0  0  0  0  0  0
    6.3671    0.4764    0.0000 C   0  0  0  0  0  0  0  0  0  0  0  0
    8.6702   -0.4721    0.0000 C   0  0  0  0  0  0  0  0  0  0  0  0
    6.8671   -2.0625    0.0000 C   0  0  0  0  0  0  0  0  0  0  0  0
    8.1745    2.0586    0.0000 C   0  0  0  0  0  0  0  0  0  0  0  0
    6.0010   -2.5625    0.0000 C   0  0  0  0  0  0  0  0  0  0  0  0
    9.0414    2.5571    0.0000 C   0  0  0  0  0  0  0  0  0  0  0  0
    7.7331   -2.5625    0.0000 C   0  0  0  0  0  0  0  0  0  0  0  0
    7.3094    2.5601    0.0000 C   0  0  0  0  0  0  0  0  0  0  0  0
    6.0010   -3.5625    0.0000 C   0  0  0  0  0  0  0  0  0  0  0  0
    9.0432    3.5571    0.0000 C   0  0  0  0  0  0  0  0  0  0  0  0
    7.7331   -3.5625    0.0000 C   0  0  0  0  0  0  0  0  0  0  0  0
    7.3111    3.5601    0.0000 C   0  0  0  0  0  0  0  0  0  0  0  0
    6.8671   -4.0625    0.0000 C   0  0  0  0  0  0  0  0  0  0  0  0
    8.1780    4.0586    0.0000 C   0  0  0  0  0  0  0  0  0  0  0  0
    6.0010   -5.5625    0.0000 C   0  0  2  0  0  0  0  0  0  0  0  0
    7.3146    5.5601    0.0000 C   0  0  2  0  0  0  0  0  0  0  0  0
    6.0010   -6.5625    0.0000 C   0  0  1  0  0  0  0  0  0  0  0  0
    7.3163    6.5601    0.0000 C   0  0  1  0  0  0  0  0  0  0  0  0
    5.1350   -7.0625    0.0000 C   0  0  2  0  0  0  0  0  0  0  0  0
    6.4511    7.0616    0.0000 C   0  0  2  0  0  0  0  0  0  0  0  0
    4.2690   -6.5625    0.0000 C   0  0  1  0  0  0  0  0  0  0  0  0
    5.5842    6.5631    0.0000 C   0  0  1  0  0  0  0  0  0  0  0  0
    4.2690   -5.5625    0.0000 C   0  0  1  0  0  0  0  0  0  0  0  0
    5.5825    5.5631    0.0000 C   0  0  1  0  0  0  0  0  0  0  0  0
    3.4030   -5.0625    0.0000 C   0  0  0  0  0  0  0  0  0  0  0  0
    4.7156    5.0646    0.0000 C   0  0  0  0  0  0  0  0  0  0  0  0
    4.2690   -3.5625    0.0000 C   0  0  0  0  0  0  0  0  0  0  0  0
   10.7752    3.5541    0.0000 C   0  0  0  0  0  0  0  0  0  0  0  0
    7.9398   -1.2828    0.0000 H   0  0  0  0  0  0  0  0  0  0  0  0
    7.1054    1.2851    0.0000 H   0  0  0  0  0  0  0  0  0  0  0  0
    6.3146   -1.3440    0.0000 H   0  0  0  0  0  0  0  0  0  0  0  0
    8.7256    1.3393    0.0000 H   0  0  0  0  0  0  0  0  0  0  0  0
    6.4319    1.0930    0.0000 H   0  0  0  0  0  0  0  0  0  0  0  0
    5.7606    0.6053    0.0000 H   0  0  0  0  0  0  0  0  0  0  0  0
    8.6066   -1.0889    0.0000 H   0  0  0  0  0  0  0  0  0  0  0  0
    9.2768   -0.6002    0.0000 H   0  0  0  0  0  0  0  0  0  0  0  0
    5.4641   -2.2525    0.0000 H   0  0  0  0  0  0  0  0  0  0  0  0
    9.5778    2.2461    0.0000 H   0  0  0  0  0  0  0  0  0  0  0  0
    8.2700   -2.2525    0.0000 H   0  0  0  0  0  0  0  0  0  0  0  0
    6.7719    2.2510    0.0000 H   0  0  0  0  0  0  0  0  0  0  0  0
    8.2700   -3.8725    0.0000 H   0  0  0  0  0  0  0  0  0  0  0  0
    6.7747    3.8710    0.0000 H   0  0  0  0  0  0  0  0  0  0  0  0
    6.0010   -4.9425    0.0000 H   0  0  0  0  0  0  0  0  0  0  0  0
    7.3135    4.9401    0.0000 H   0  0  0  0  0  0  0  0  0  0  0  0
    6.0010   -7.1825    0.0000 H   0  0  0  0  0  0  0  0  0  0  0  0
    7.3174    7.1801    0.0000 H   0  0  0  0  0  0  0  0  0  0  0  0
    4.5981   -7.3725    0.0000 H   0  0  0  0  0  0  0  0  0  0  0  0
    5.9147    7.3725    0.0000 H   0  0  0  0  0  0  0  0  0  0  0  0
    4.2690   -7.1825    0.0000 H   0  0  0  0  0  0  0  0  0  0  0  0
    5.5853    7.1831    0.0000 H   0  0  0  0  0  0  0  0  0  0  0  0
    4.2690   -4.9425    0.0000 H   0  0  0  0  0  0  0  0  0  0  0  0
    5.5814    4.9431    0.0000 H   0  0  0  0  0  0  0  0  0  0  0  0
    3.8015   -4.5875    0.0000 H   0  0  0  0  0  0  0  0  0  0  0  0
    3.0044   -4.5875    0.0000 H   0  0  0  0  0  0  0  0  0  0  0  0
    4.3163    4.5903    0.0000 H   0  0  0  0  0  0  0  0  0  0  0  0
    5.1133    4.5889    0.0000 H   0  0  0  0  0  0  0  0  0  0  0  0
    7.4040   -6.7525    0.0000 H   0  0  0  0  0  0  0  0  0  0  0  0
    8.1843    7.6786    0.0000 H   0  0  0  0  0  0  0  0  0  0  0  0
    5.6720   -8.3725    0.0000 H   0  0  0  0  0  0  0  0  0  0  0  0
    5.9165    8.3725    0.0000 H   0  0  0  0  0  0  0  0  0  0  0  0
    3.4030   -7.6825    0.0000 H   0  0  0  0  0  0  0  0  0  0  0  0
    4.7202    7.6846    0.0000 H   0  0  0  0  0  0  0  0  0  0  0  0
    4.5790   -3.0256    0.0000 H   0  0  0  0  0  0  0  0  0  0  0  0
    3.7320   -3.2525    0.0000 H   0  0  0  0  0  0  0  0  0  0  0  0
    3.9590   -4.0994    0.0000 H   0  0  0  0  0  0  0  0  0  0  0  0
   10.4643    3.0177    0.0000 H   0  0  0  0  0  0  0  0  0  0  0  0
   11.3116    3.2431    0.0000 H   0  0  0  0  0  0  0  0  0  0  0  0
   11.0861    4.0905    0.0000 H   0  0  0  0  0  0  0  0  0  0  0  0
    2.0000   -5.2525    0.0000 H   0  0  0  0  0  0  0  0  0  0  0  0
    3.3130    5.2570    0.0000 H   0  0  0  0  0  0  0  0  0  0  0  0
  1 19  1  0  0  0  0
  1 21  1  0  0  0  0
  2 20  1  0  0  0  0
  2 22  1  0  0  0  0
  3 33  1  0  0  0  0
 35  3  1  1  0  0  0
  4 34  1  0  0  0  0
 36  4  1  6  0  0  0
  5 35  1  0  0  0  0
  5 43  1  0  0  0  0
  6 36  1  0  0  0  0
  6 44  1  0  0  0  0
  7 29  1  0  0  0  0
  7 47  1  0  0  0  0
  8 30  1  0  0  0  0
  8 48  1  0  0  0  0
 37  9  1  6  0  0  0
  9 77  1  0  0  0  0
 38 10  1  1  0  0  0
 10 78  1  0  0  0  0
 39 11  1  1  0  0  0
 11 79  1  0  0  0  0
 40 12  1  6  0  0  0
 12 80  1  0  0  0  0
 41 13  1  6  0  0  0
 13 81  1  0  0  0  0
 42 14  1  1  0  0  0
 14 82  1  0  0  0  0
 15 45  1  0  0  0  0
 15 89  1  0  0  0  0
 16 46  1  0  0  0  0
 16 90  1  0  0  0  0
 17 18  1  0  0  0  0
 17 19  1  0  0  0  0
 17 22  1  0  0  0  0
 17 49  1  1  0  0  0
 18 20  1  0  0  0  0
 18 21  1  0  0  0  0
 18 50  1  1  0  0  0
 19 23  1  1  0  0  0
 19 51  1  0  0  0  0
 20 24  1  1  0  0  0
 20 52  1  0  0  0  0
 21 53  1  0  0  0  0
 21 54  1  0  0  0  0
 22 55  1  0  0  0  0
 22 56  1  0  0  0  0
 23 25  2  0  0  0  0
 23 27  1  0  0  0  0
 24 26  2  0  0  0  0
 24 28  1  0  0  0  0
 25 29  1  0  0  0  0
 25 57  1  0  0  0  0
 26 30  1  0  0  0  0
 26 58  1  0  0  0  0
 27 31  2  0  0  0  0
 27 59  1  0  0  0  0
 28 32  2  0  0  0  0
 28 60  1  0  0  0  0
 29 33  2  0  0  0  0
 30 34  2  0  0  0  0
 31 33  1  0  0  0  0
 31 61  1  0  0  0  0
 32 34  1  0  0  0  0
 32 62  1  0  0  0  0
 35 37  1  0  0  0  0
 35 63  1  0  0  0  0
 36 38  1  0  0  0  0
 36 64  1  0  0  0  0
 37 39  1  0  0  0  0
 37 65  1  0  0  0  0
 38 40  1  0  0  0  0
 38 66  1  0  0  0  0
 39 41  1  0  0  0  0
 39 67  1  0  0  0  0
 40 42  1  0  0  0  0
 40 68  1  0  0  0  0
 41 43  1  0  0  0  0
 41 69  1  0  0  0  0
 42 44  1  0  0  0  0
 42 70  1  0  0  0  0
 43 45  1  1  0  0  0
 43 71  1  0  0  0  0
 44 46  1  6  0  0  0
 44 72  1  0  0  0  0
 45 73  1  0  0  0  0
 45 74  1  0  0  0  0
 46 75  1  0  0  0  0
 46 76  1  0  0  0  0
 47 83  1  0  0  0  0
 47 84  1  0  0  0  0
 47 85  1  0  0  0  0
 48 86  1  0  0  0  0
 48 87  1  0  0  0  0
 48 88  1  0  0  0  0
M  END
> <PUBCHEM_COMPOUND_CID>
174003

> <PUBCHEM_COMPOUND_CANONICALIZED>
1

> <PUBCHEM_CACTVS_COMPLEXITY>
947

> <PUBCHEM_CACTVS_HBOND_ACCEPTOR>
16

> <PUBCHEM_CACTVS_HBOND_DONOR>
8

> <PUBCHEM_CACTVS_ROTATABLE_BOND>
10

> <PUBCHEM_CACTVS_SUBSKEYS>
AAADcfB8PgAAAAAAAAAAAAAAAAAAASJAAAA0aIEAAAASAAABQAAAGgAACAAADRSwmAMyDoAABgCAAiBCAAACCAAgIAAIiAAGiIgdNiKEMRqieCKlwBEPqAfA4PwOoAABAAAAQABAAAIAAACAAAAAAAAAAA==

> <PUBCHEM_IUPAC_OPENEYE_NAME>
(2S,3R,4S,5S,6R)-2-[4-[(3S,3aR,6S,6aR)-6-[3-methoxy-4-[(2S,3R,4S,5S,6R)-3,4,5-trihydroxy-6-(hydroxymethyl)tetrahydropyran-2-yl]oxy-phenyl]-1,3,3a,4,6,6a-hexahydrofuro[3,4-c]furan-3-yl]-2-methoxy-phenoxy]-6-(hydroxymethyl)tetrahydropyran-3,4,5-triol

> <PUBCHEM_IUPAC_CAS_NAME>
(2S,3R,4S,5S,6R)-2-[4-[(3S,3aR,6S,6aR)-6-[3-methoxy-4-[[(2S,3R,4S,5S,6R)-3,4,5-trihydroxy-6-(hydroxymethyl)-2-oxanyl]oxy]phenyl]-1,3,3a,4,6,6a-hexahydrofuro[3,4-c]furan-3-yl]-2-methoxyphenoxy]-6-(hydroxymethyl)oxane-3,4,5-triol

> <PUBCHEM_IUPAC_NAME_MARKUP>
(2<I>S</I>,3<I>R</I>,4<I>S</I>,5<I>S</I>,6<I>R</I>)-2-[4-[(3<I>S</I>,3<I>a</I><I>R</I>,6<I>S</I>,6<I>a</I><I>R</I>)-6-[3-methoxy-4-[(2<I>S</I>,3<I>R</I>,4<I>S</I>,5<I>S</I>,6<I>R</I>)-3,4,5-trihydroxy-6-(hydroxymethyl)oxan-2-yl]oxyphenyl]-1,3,3<I>a</I>,4,6,6<I>a</I>-hexahydrofuro[3,4-c]furan-3-yl]-2-methoxyphenoxy]-6-(hydroxymethyl)oxane-3,4,5-triol

> <PUBCHEM_IUPAC_NAME>
(2S,3R,4S,5S,6R)-2-[4-[(3S,3aR,6S,6aR)-6-[3-methoxy-4-[(2S,3R,4S,5S,6R)-3,4,5-trihydroxy-6-(hydroxymethyl)oxan-2-yl]oxyphenyl]-1,3,3a,4,6,6a-hexahydrofuro[3,4-c]furan-3-yl]-2-methoxyphenoxy]-6-(hydroxymethyl)oxane-3,4,5-triol

> <PUBCHEM_IUPAC_SYSTEMATIC_NAME>
(2S,3R,4S,5S,6R)-2-[4-[(3S,3aR,6S,6aR)-6-[4-[(2S,3R,4S,5S,6R)-6-(hydroxymethyl)-3,4,5-tris(oxidanyl)oxan-2-yl]oxy-3-methoxy-phenyl]-1,3,3a,4,6,6a-hexahydrofuro[3,4-c]furan-3-yl]-2-methoxy-phenoxy]-6-(hydroxymethyl)oxane-3,4,5-triol

> <PUBCHEM_IUPAC_TRADITIONAL_NAME>
(2S,3R,4S,5S,6R)-2-[4-[(3S,3aR,6S,6aR)-6-[3-methoxy-4-[(2S,3R,4S,5S,6R)-3,4,5-trihydroxy-6-methylol-tetrahydropyran-2-yl]oxy-phenyl]-1,3,3a,4,6,6a-hexahydrofuro[3,4-c]furan-3-yl]-2-methoxy-phenoxy]-6-methylol-tetrahydropyran-3,4,5-triol

> <PUBCHEM_IUPAC_INCHI>
InChI=1S/C32H42O16/c1-41-19-7-13(3-5-17(19)45-31-27(39)25(37)23(35)21(9-33)47-31)29-15-11-44-30(16(15)12-43-29)14-4-6-18(20(8-14)42-2)46-32-28(40)26(38)24(36)22(10-34)48-32/h3-8,15-16,21-40H,9-12H2,1-2H3/t15-,16-,21+,22+,23+,24+,25-,26-,27+,28+,29+,30+,31+,32+/m0/s1

> <PUBCHEM_IUPAC_INCHIKEY>
ZJSJQWDXAYNLNS-FUPWJLLWSA-N

> <PUBCHEM_XLOGP3_AA>
-1.3

> <PUBCHEM_EXACT_MASS>
682.24728525

> <PUBCHEM_MOLECULAR_FORMULA>
C32H42O16

> <PUBCHEM_MOLECULAR_WEIGHT>
682.7

> <PUBCHEM_OPENEYE_CAN_SMILES>
COC1=C(C=CC(=C1)C2C3COC(C3CO2)C4=CC(=C(C=C4)OC5C(C(C(C(O5)CO)O)O)O)OC)OC6C(C(C(C(O6)CO)O)O)O

> <PUBCHEM_OPENEYE_ISO_SMILES>
COC1=C(C=CC(=C1)[C@@H]2[C@H]3CO[C@@H]([C@H]3CO2)C4=CC(=C(C=C4)O[C@H]5[C@@H]([C@H]([C@@H]([C@H](O5)CO)O)O)O)OC)O[C@H]6[C@@H]([C@H]([C@@H]([C@H](O6)CO)O)O)O

> <PUBCHEM_CACTVS_TPSA>
236

> <PUBCHEM_MONOISOTOPIC_WEIGHT>
682.24728525

> <PUBCHEM_TOTAL_CHARGE>
0

> <PUBCHEM_HEAVY_ATOM_COUNT>
48

> <PUBCHEM_ATOM_DEF_STEREO_COUNT>
14

> <PUBCHEM_ATOM_UDEF_STEREO_COUNT>
0

> <PUBCHEM_BOND_DEF_STEREO_COUNT>
0

> <PUBCHEM_BOND_UDEF_STEREO_COUNT>
0

> <PUBCHEM_ISOTOPIC_ATOM_COUNT>
0

> <PUBCHEM_COMPONENT_COUNT>
1

> <PUBCHEM_CACTVS_TAUTO_COUNT>
1

> <PUBCHEM_COORDINATE_TYPE>
1
5
255

> <PUBCHEM_BONDANNOTATIONS>
38  10  5
39  11  5
40  12  6
41  13  6
42  14  5
17  49  5
18  50  5
19  23  5
20  24  5
23  25  8
23  27  8
24  26  8
24  28  8
25  29  8
26  30  8
27  31  8
28  32  8
29  33  8
35  3  5
30  34  8
31  33  8
32  34  8
36  4  6
43  45  5
44  46  6
37  9  6

$$$$
