 
  -OEChem-10192104362D

 62 65  0     1  0  0  0  0  0999 V2000
    7.0628    1.7792    0.0000 O   0  0  0  0  0  0  0  0  0  0  0  0
    2.5357   -2.7732    0.0000 O   0  0  0  0  0  0  0  0  0  0  0  0
   10.4749    2.6912    0.0000 O   0  0  0  0  0  0  0  0  0  0  0  0
   10.8321    0.9963    0.0000 O   0  0  0  0  0  0  0  0  0  0  0  0
    7.9288    0.2792    0.0000 C   0  0  3  0  0  0  0  0  0  0  0  0
    7.9288   -0.7208    0.0000 C   0  0  3  0  0  0  0  0  0  0  0  0
    7.0628   -1.2208    0.0000 C   0  0  3  0  0  0  0  0  0  0  0  0
    6.1968   -0.7208    0.0000 C   0  0  3  0  0  0  0  0  0  0  0  0
    5.2868   -1.2277    0.0000 C   0  0  3  0  0  0  0  0  0  0  0  0
    8.8750    0.5839    0.0000 C   0  0  3  0  0  0  0  0  0  0  0  0
    7.0628    0.7792    0.0000 C   0  0  3  0  0  0  0  0  0  0  0  0
    5.2787   -2.2693    0.0000 C   0  0  3  0  0  0  0  0  0  0  0  0
    6.1968    0.2792    0.0000 C   0  0  0  0  0  0  0  0  0  0  0  0
    8.8750   -1.0256    0.0000 C   0  0  0  0  0  0  0  0  0  0  0  0
    7.0789   -2.2624    0.0000 C   0  0  0  0  0  0  0  0  0  0  0  0
    9.4586   -0.2208    0.0000 C   0  0  0  0  0  0  0  0  0  0  0  0
    6.1808   -2.7901    0.0000 C   0  0  0  0  0  0  0  0  0  0  0  0
    4.3599   -0.6636    0.0000 C   0  0  0  0  0  0  0  0  0  0  0  0
    7.9288    1.2792    0.0000 C   0  0  0  0  0  0  0  0  0  0  0  0
    4.3433   -2.8190    0.0000 C   0  0  0  0  0  0  0  0  0  0  0  0
    5.2945   -0.2277    0.0000 C   0  0  0  0  0  0  0  0  0  0  0  0
    9.1857    1.5344    0.0000 C   0  0  3  0  0  0  0  0  0  0  0  0
    3.4120   -1.1916    0.0000 C   0  0  0  0  0  0  0  0  0  0  0  0
    3.4037   -2.2765    0.0000 C   0  0  3  0  0  0  0  0  0  0  0  0
    8.5179    2.2787    0.0000 C   0  0  0  0  0  0  0  0  0  0  0  0
   10.1642    1.7406    0.0000 C   0  0  0  0  0  0  0  0  0  0  0  0
    7.9944   -1.3374    0.0000 H   0  0  0  0  0  0  0  0  0  0  0  0
    7.6021   -1.5267    0.0000 H   0  0  0  0  0  0  0  0  0  0  0  0
    6.7337   -0.4108    0.0000 H   0  0  0  0  0  0  0  0  0  0  0  0
    9.4875    0.6801    0.0000 H   0  0  0  0  0  0  0  0  0  0  0  0
    6.5259    1.0892    0.0000 H   0  0  0  0  0  0  0  0  0  0  0  0
    5.2811   -2.8893    0.0000 H   0  0  0  0  0  0  0  0  0  0  0  0
    5.9847    0.8618    0.0000 H   0  0  0  0  0  0  0  0  0  0  0  0
    5.5862    0.1715    0.0000 H   0  0  0  0  0  0  0  0  0  0  0  0
    8.6240   -1.5925    0.0000 H   0  0  0  0  0  0  0  0  0  0  0  0
    9.4124   -1.3348    0.0000 H   0  0  0  0  0  0  0  0  0  0  0  0
    7.2969   -2.8427    0.0000 H   0  0  0  0  0  0  0  0  0  0  0  0
    7.6880   -2.1468    0.0000 H   0  0  0  0  0  0  0  0  0  0  0  0
    9.9195   -0.6356    0.0000 H   0  0  0  0  0  0  0  0  0  0  0  0
    9.9195    0.1939    0.0000 H   0  0  0  0  0  0  0  0  0  0  0  0
    5.7835   -3.2661    0.0000 H   0  0  0  0  0  0  0  0  0  0  0  0
    6.5818   -3.2630    0.0000 H   0  0  0  0  0  0  0  0  0  0  0  0
    4.7681   -0.1969    0.0000 H   0  0  0  0  0  0  0  0  0  0  0  0
    3.9700   -0.1816    0.0000 H   0  0  0  0  0  0  0  0  0  0  0  0
    8.5488    1.2792    0.0000 H   0  0  0  0  0  0  0  0  0  0  0  0
    7.9288    1.8992    0.0000 H   0  0  0  0  0  0  0  0  0  0  0  0
    7.3088    1.2792    0.0000 H   0  0  0  0  0  0  0  0  0  0  0  0
    3.9460   -3.2950    0.0000 H   0  0  0  0  0  0  0  0  0  0  0  0
    4.7443   -3.2919    0.0000 H   0  0  0  0  0  0  0  0  0  0  0  0
    5.9145   -0.2325    0.0000 H   0  0  0  0  0  0  0  0  0  0  0  0
    5.2993    0.3923    0.0000 H   0  0  0  0  0  0  0  0  0  0  0  0
    4.6745   -0.2229    0.0000 H   0  0  0  0  0  0  0  0  0  0  0  0
    9.3783    2.1237    0.0000 H   0  0  0  0  0  0  0  0  0  0  0  0
    3.2075   -0.6063    0.0000 H   0  0  0  0  0  0  0  0  0  0  0  0
    2.8004   -1.2929    0.0000 H   0  0  0  0  0  0  0  0  0  0  0  0
    2.8686   -1.9634    0.0000 H   0  0  0  0  0  0  0  0  0  0  0  0
    6.5259    2.0892    0.0000 H   0  0  0  0  0  0  0  0  0  0  0  0
    8.9793    2.6928    0.0000 H   0  0  0  0  0  0  0  0  0  0  0  0
    8.1038    2.7402    0.0000 H   0  0  0  0  0  0  0  0  0  0  0  0
    8.0564    1.8646    0.0000 H   0  0  0  0  0  0  0  0  0  0  0  0
    2.0000   -2.4611    0.0000 H   0  0  0  0  0  0  0  0  0  0  0  0
   11.0815    2.8190    0.0000 H   0  0  0  0  0  0  0  0  0  0  0  0
  1 11  1  0  0  0  0
  1 57  1  0  0  0  0
  2 24  1  0  0  0  0
  2 61  1  0  0  0  0
  3 26  1  0  0  0  0
  3 62  1  0  0  0  0
  4 26  2  0  0  0  0
  5  6  1  0  0  0  0
  5 10  1  0  0  0  0
  5 11  1  0  0  0  0
  5 19  1  0  0  0  0
  6  7  1  0  0  0  0
  6 14  1  0  0  0  0
  6 27  1  0  0  0  0
  7  8  1  0  0  0  0
  7 15  1  0  0  0  0
  7 28  1  0  0  0  0
  8  9  1  0  0  0  0
  8 13  1  0  0  0  0
  8 29  1  0  0  0  0
  9 12  1  0  0  0  0
  9 18  1  0  0  0  0
  9 21  1  0  0  0  0
 10 16  1  0  0  0  0
 10 22  1  0  0  0  0
 10 30  1  0  0  0  0
 11 13  1  0  0  0  0
 11 31  1  0  0  0  0
 12 17  1  0  0  0  0
 12 20  1  0  0  0  0
 12 32  1  0  0  0  0
 13 33  1  0  0  0  0
 13 34  1  0  0  0  0
 14 16  1  0  0  0  0
 14 35  1  0  0  0  0
 14 36  1  0  0  0  0
 15 17  1  0  0  0  0
 15 37  1  0  0  0  0
 15 38  1  0  0  0  0
 16 39  1  0  0  0  0
 16 40  1  0  0  0  0
 17 41  1  0  0  0  0
 17 42  1  0  0  0  0
 18 23  1  0  0  0  0
 18 43  1  0  0  0  0
 18 44  1  0  0  0  0
 19 45  1  0  0  0  0
 19 46  1  0  0  0  0
 19 47  1  0  0  0  0
 20 24  1  0  0  0  0
 20 48  1  0  0  0  0
 20 49  1  0  0  0  0
 21 50  1  0  0  0  0
 21 51  1  0  0  0  0
 21 52  1  0  0  0  0
 22 25  1  0  0  0  0
 22 26  1  0  0  0  0
 22 53  1  0  0  0  0
 23 24  1  0  0  0  0
 23 54  1  0  0  0  0
 23 55  1  0  0  0  0
 24 56  1  0  0  0  0
 25 58  1  0  0  0  0
 25 59  1  0  0  0  0
 25 60  1  0  0  0  0
M  END
> <PUBCHEM_COMPOUND_CID>
3535798

> <PUBCHEM_COMPOUND_CANONICALIZED>
1

> <PUBCHEM_CACTVS_COMPLEXITY>
577

> <PUBCHEM_CACTVS_HBOND_ACCEPTOR>
4

> <PUBCHEM_CACTVS_HBOND_DONOR>
3

> <PUBCHEM_CACTVS_ROTATABLE_BOND>
2

> <PUBCHEM_CACTVS_SUBSKEYS>
AAADcfB4OAAAAAAAAAAAAAAAAAAAAYAAAAAwYMAAAAAAAGDAAAAAGgAACAAADxSggAICCAAAAgAIAACQCAAAAAAAAAAAAAEAAAAAEBIAAAAAQAAEAAAAAAGI7PTPgAAAAAAAAADAAAYAADAAAQAACAAAAA==

> <PUBCHEM_IUPAC_OPENEYE_NAME>
2-(3,12-dihydroxy-10,13-dimethyl-2,3,4,5,6,7,8,9,11,12,14,15,16,17-tetradecahydro-1H-cyclopenta[a]phenanthren-17-yl)propanoic acid

> <PUBCHEM_IUPAC_CAS_NAME>
2-(3,12-dihydroxy-10,13-dimethyl-2,3,4,5,6,7,8,9,11,12,14,15,16,17-tetradecahydro-1H-cyclopenta[a]phenanthren-17-yl)propanoic acid

> <PUBCHEM_IUPAC_NAME_MARKUP>
2-(3,12-dihydroxy-10,13-dimethyl-2,3,4,5,6,7,8,9,11,12,14,15,16,17-tetradecahydro-1<I>H</I>-cyclopenta[a]phenanthren-17-yl)propanoic acid

> <PUBCHEM_IUPAC_NAME>
2-(3,12-dihydroxy-10,13-dimethyl-2,3,4,5,6,7,8,9,11,12,14,15,16,17-tetradecahydro-1H-cyclopenta[a]phenanthren-17-yl)propanoic acid

> <PUBCHEM_IUPAC_SYSTEMATIC_NAME>
2-[10,13-dimethyl-3,12-bis(oxidanyl)-2,3,4,5,6,7,8,9,11,12,14,15,16,17-tetradecahydro-1H-cyclopenta[a]phenanthren-17-yl]propanoic acid

> <PUBCHEM_IUPAC_TRADITIONAL_NAME>
2-(3,12-dihydroxy-10,13-dimethyl-2,3,4,5,6,7,8,9,11,12,14,15,16,17-tetradecahydro-1H-cyclopenta[a]phenanthren-17-yl)propionic acid

> <PUBCHEM_IUPAC_INCHI>
InChI=1S/C22H36O4/c1-12(20(25)26)16-6-7-17-15-5-4-13-10-14(23)8-9-21(13,2)18(15)11-19(24)22(16,17)3/h12-19,23-24H,4-11H2,1-3H3,(H,25,26)

> <PUBCHEM_IUPAC_INCHIKEY>
MULSOMSXPSGJAM-UHFFFAOYSA-N

> <PUBCHEM_XLOGP3_AA>
4.3

> <PUBCHEM_EXACT_MASS>
364.26135963

> <PUBCHEM_MOLECULAR_FORMULA>
C22H36O4

> <PUBCHEM_MOLECULAR_WEIGHT>
364.5

> <PUBCHEM_OPENEYE_CAN_SMILES>
CC(C1CCC2C1(C(CC3C2CCC4C3(CCC(C4)O)C)O)C)C(=O)O

> <PUBCHEM_OPENEYE_ISO_SMILES>
CC(C1CCC2C1(C(CC3C2CCC4C3(CCC(C4)O)C)O)C)C(=O)O

> <PUBCHEM_CACTVS_TPSA>
77.8

> <PUBCHEM_MONOISOTOPIC_WEIGHT>
364.26135963

> <PUBCHEM_TOTAL_CHARGE>
0

> <PUBCHEM_HEAVY_ATOM_COUNT>
26

> <PUBCHEM_ATOM_DEF_STEREO_COUNT>
0

> <PUBCHEM_ATOM_UDEF_STEREO_COUNT>
10

> <PUBCHEM_BOND_DEF_STEREO_COUNT>
0

> <PUBCHEM_BOND_UDEF_STEREO_COUNT>
0

> <PUBCHEM_ISOTOPIC_ATOM_COUNT>
0

> <PUBCHEM_COMPONENT_COUNT>
1

> <PUBCHEM_CACTVS_TAUTO_COUNT>
-1

> <PUBCHEM_COORDINATE_TYPE>
1
5
255

> <PUBCHEM_BONDANNOTATIONS>
11  1  3
10  16  3
12  17  3
24  2  3
22  25  3
5  19  3
6  14  3
7  15  3
8  13  3
9  21  3

$$$$
