 
  -OEChem-10192103332D

 41 40  0     0  0  0  0  0  0999 V2000
    5.1350   -2.0950    0.0000 O   0  0  0  0  0  0  0  0  0  0  0  0
   11.1972    2.4050    0.0000 O   0  0  0  0  0  0  0  0  0  0  0  0
    2.5369    2.4050    0.0000 O   0  0  0  0  0  0  0  0  0  0  0  0
    4.2690   -0.5950    0.0000 O   0  0  0  0  0  0  0  0  0  0  0  0
   10.3312    0.9050    0.0000 O   0  0  0  0  0  0  0  0  0  0  0  0
    3.4030    0.9050    0.0000 O   0  0  0  0  0  0  0  0  0  0  0  0
    6.8671    1.9050    0.0000 C   0  0  0  0  0  0  0  0  0  0  0  0
    6.8671    0.9050    0.0000 C   0  0  0  0  0  0  0  0  0  0  0  0
    7.7331    2.4050    0.0000 C   0  0  0  0  0  0  0  0  0  0  0  0
    6.0010    2.4050    0.0000 C   0  0  0  0  0  0  0  0  0  0  0  0
    6.0010    0.4050    0.0000 C   0  0  0  0  0  0  0  0  0  0  0  0
    8.5991    1.9050    0.0000 C   0  0  0  0  0  0  0  0  0  0  0  0
    5.1350    1.9050    0.0000 C   0  0  0  0  0  0  0  0  0  0  0  0
    6.0010   -0.5950    0.0000 C   0  0  0  0  0  0  0  0  0  0  0  0
    9.4651    2.4050    0.0000 C   0  0  0  0  0  0  0  0  0  0  0  0
    4.2690    2.4050    0.0000 C   0  0  0  0  0  0  0  0  0  0  0  0
    5.1350   -1.0950    0.0000 C   0  0  0  0  0  0  0  0  0  0  0  0
   10.3312    1.9050    0.0000 C   0  0  0  0  0  0  0  0  0  0  0  0
    3.4030    1.9050    0.0000 C   0  0  0  0  0  0  0  0  0  0  0  0
    6.3301    1.5950    0.0000 H   0  0  0  0  0  0  0  0  0  0  0  0
    7.0791    0.3224    0.0000 H   0  0  0  0  0  0  0  0  0  0  0  0
    7.4776    1.0127    0.0000 H   0  0  0  0  0  0  0  0  0  0  0  0
    8.1316    2.8800    0.0000 H   0  0  0  0  0  0  0  0  0  0  0  0
    7.3346    2.8800    0.0000 H   0  0  0  0  0  0  0  0  0  0  0  0
    6.3996    2.8800    0.0000 H   0  0  0  0  0  0  0  0  0  0  0  0
    5.6025    2.8800    0.0000 H   0  0  0  0  0  0  0  0  0  0  0  0
    5.7890    0.9876    0.0000 H   0  0  0  0  0  0  0  0  0  0  0  0
    5.3905    0.2973    0.0000 H   0  0  0  0  0  0  0  0  0  0  0  0
    8.2006    1.4300    0.0000 H   0  0  0  0  0  0  0  0  0  0  0  0
    8.9976    1.4300    0.0000 H   0  0  0  0  0  0  0  0  0  0  0  0
    4.7365    1.4300    0.0000 H   0  0  0  0  0  0  0  0  0  0  0  0
    5.5335    1.4300    0.0000 H   0  0  0  0  0  0  0  0  0  0  0  0
    6.2131   -1.1776    0.0000 H   0  0  0  0  0  0  0  0  0  0  0  0
    6.6116   -0.4873    0.0000 H   0  0  0  0  0  0  0  0  0  0  0  0
    9.8637    2.8800    0.0000 H   0  0  0  0  0  0  0  0  0  0  0  0
    9.0666    2.8800    0.0000 H   0  0  0  0  0  0  0  0  0  0  0  0
    4.6675    2.8800    0.0000 H   0  0  0  0  0  0  0  0  0  0  0  0
    3.8705    2.8800    0.0000 H   0  0  0  0  0  0  0  0  0  0  0  0
    4.5981   -2.4050    0.0000 H   0  0  0  0  0  0  0  0  0  0  0  0
   11.7341    2.0950    0.0000 H   0  0  0  0  0  0  0  0  0  0  0  0
    2.0000    2.0950    0.0000 H   0  0  0  0  0  0  0  0  0  0  0  0
  1 17  1  0  0  0  0
  1 39  1  0  0  0  0
  2 18  1  0  0  0  0
  2 40  1  0  0  0  0
  3 19  1  0  0  0  0
  3 41  1  0  0  0  0
  4 17  2  0  0  0  0
  5 18  2  0  0  0  0
  6 19  2  0  0  0  0
  7  8  1  0  0  0  0
  7  9  1  0  0  0  0
  7 10  1  0  0  0  0
  7 20  1  0  0  0  0
  8 11  1  0  0  0  0
  8 21  1  0  0  0  0
  8 22  1  0  0  0  0
  9 12  1  0  0  0  0
  9 23  1  0  0  0  0
  9 24  1  0  0  0  0
 10 13  1  0  0  0  0
 10 25  1  0  0  0  0
 10 26  1  0  0  0  0
 11 14  1  0  0  0  0
 11 27  1  0  0  0  0
 11 28  1  0  0  0  0
 12 15  1  0  0  0  0
 12 29  1  0  0  0  0
 12 30  1  0  0  0  0
 13 16  1  0  0  0  0
 13 31  1  0  0  0  0
 13 32  1  0  0  0  0
 14 17  1  0  0  0  0
 14 33  1  0  0  0  0
 14 34  1  0  0  0  0
 15 18  1  0  0  0  0
 15 35  1  0  0  0  0
 15 36  1  0  0  0  0
 16 19  1  0  0  0  0
 16 37  1  0  0  0  0
 16 38  1  0  0  0  0
M  END
> <PUBCHEM_COMPOUND_CID>
87082895

> <PUBCHEM_COMPOUND_CANONICALIZED>
1

> <PUBCHEM_CACTVS_COMPLEXITY>
252

> <PUBCHEM_CACTVS_HBOND_ACCEPTOR>
6

> <PUBCHEM_CACTVS_HBOND_DONOR>
3

> <PUBCHEM_CACTVS_ROTATABLE_BOND>
12

> <PUBCHEM_CACTVS_SUBSKEYS>
AAADceBwOAAAAAAAAAAAAAAAAAAAAAAAAAAAAAAAAAAAAAAAAAAAGgAACAAADQCAgAAACAAAAgAIAACQCAAAAAAAAAAAAAEAAAAAABIAAAAAQAAEAAAAAAGIyLCOAAAAAAAAAAAAAAAAAAAAAAAAAAAAAA==

> <PUBCHEM_IUPAC_OPENEYE_NAME>
5-(3-carboxypropyl)nonanedioic acid

> <PUBCHEM_IUPAC_CAS_NAME>
5-(3-carboxypropyl)nonanedioic acid

> <PUBCHEM_IUPAC_NAME_MARKUP>
5-(3-carboxypropyl)nonanedioic acid

> <PUBCHEM_IUPAC_NAME>
5-(3-carboxypropyl)nonanedioic acid

> <PUBCHEM_IUPAC_SYSTEMATIC_NAME>
5-(4-oxidanyl-4-oxidanylidene-butyl)nonanedioic acid

> <PUBCHEM_IUPAC_TRADITIONAL_NAME>
5-(3-carboxypropyl)azelaic acid

> <PUBCHEM_IUPAC_INCHI>
InChI=1S/C13H22O6/c14-11(15)7-1-4-10(5-2-8-12(16)17)6-3-9-13(18)19/h10H,1-9H2,(H,14,15)(H,16,17)(H,18,19)

> <PUBCHEM_IUPAC_INCHIKEY>
PQZNTMHMTPJGGL-UHFFFAOYSA-N

> <PUBCHEM_XLOGP3_AA>
1.7

> <PUBCHEM_EXACT_MASS>
274.14163842

> <PUBCHEM_MOLECULAR_FORMULA>
C13H22O6

> <PUBCHEM_MOLECULAR_WEIGHT>
274.31

> <PUBCHEM_OPENEYE_CAN_SMILES>
C(CC(CCCC(=O)O)CCCC(=O)O)CC(=O)O

> <PUBCHEM_OPENEYE_ISO_SMILES>
C(CC(CCCC(=O)O)CCCC(=O)O)CC(=O)O

> <PUBCHEM_CACTVS_TPSA>
112

> <PUBCHEM_MONOISOTOPIC_WEIGHT>
274.14163842

> <PUBCHEM_TOTAL_CHARGE>
0

> <PUBCHEM_HEAVY_ATOM_COUNT>
19

> <PUBCHEM_ATOM_DEF_STEREO_COUNT>
0

> <PUBCHEM_ATOM_UDEF_STEREO_COUNT>
0

> <PUBCHEM_BOND_DEF_STEREO_COUNT>
0

> <PUBCHEM_BOND_UDEF_STEREO_COUNT>
0

> <PUBCHEM_ISOTOPIC_ATOM_COUNT>
0

> <PUBCHEM_COMPONENT_COUNT>
1

> <PUBCHEM_CACTVS_TAUTO_COUNT>
-1

> <PUBCHEM_COORDINATE_TYPE>
1
5
255

$$$$
