 
  -OEChem-10192104422D

 59 60  0     1  0  0  0  0  0999 V2000
    6.0010    0.9050    0.0000 O   0  0  0  0  0  0  0  0  0  0  0  0
    4.2690   -2.0950    0.0000 O   0  0  0  0  0  0  0  0  0  0  0  0
    6.0010   -2.0950    0.0000 O   0  0  0  0  0  0  0  0  0  0  0  0
    5.1350    2.4050    0.0000 O   0  0  0  0  0  0  0  0  0  0  0  0
    8.5991    0.4050    0.0000 O   0  0  0  0  0  0  0  0  0  0  0  0
    8.5991    2.4050    0.0000 O   0  0  0  0  0  0  0  0  0  0  0  0
    6.0010   -1.0950    0.0000 O   0  0  0  0  0  0  0  0  0  0  0  0
    6.8671    3.4050    0.0000 O   0  0  0  0  0  0  0  0  0  0  0  0
    4.2690   -5.0950    0.0000 O   0  0  0  0  0  0  0  0  0  0  0  0
    2.5369   -4.0950    0.0000 O   0  0  0  0  0  0  0  0  0  0  0  0
    6.0010   -4.0950    0.0000 O   0  0  0  0  0  0  0  0  0  0  0  0
    2.5369   -1.0950    0.0000 O   0  0  0  0  0  0  0  0  0  0  0  0
    7.7331    0.9050    0.0000 C   0  0  2  0  0  0  0  0  0  0  0  0
    6.8671    0.4050    0.0000 C   0  0  1  0  0  0  0  0  0  0  0  0
    7.7331    1.9050    0.0000 C   0  0  1  0  0  0  0  0  0  0  0  0
    6.8671    2.4050    0.0000 C   0  0  2  0  0  0  0  0  0  0  0  0
    4.2690   -4.0950    0.0000 C   0  0  1  0  0  0  0  0  0  0  0  0
    3.4030   -3.5950    0.0000 C   0  0  1  0  0  0  0  0  0  0  0  0
    6.0010    1.9050    0.0000 C   0  0  1  0  0  0  0  0  0  0  0  0
    5.1350   -3.5950    0.0000 C   0  0  2  0  0  0  0  0  0  0  0  0
    3.4030   -2.5950    0.0000 C   0  0  1  0  0  0  0  0  0  0  0  0
    5.1350   -2.5950    0.0000 C   0  0  1  0  0  0  0  0  0  0  0  0
    6.8671   -0.5950    0.0000 C   0  0  0  0  0  0  0  0  0  0  0  0
    2.5369   -2.0950    0.0000 C   0  0  0  0  0  0  0  0  0  0  0  0
    5.1350    3.4050    0.0000 C   0  0  0  0  0  0  0  0  0  0  0  0
    4.2690    3.9050    0.0000 C   0  0  0  0  0  0  0  0  0  0  0  0
    4.2690    4.9050    0.0000 C   0  0  0  0  0  0  0  0  0  0  0  0
    3.4030    5.4050    0.0000 C   0  0  0  0  0  0  0  0  0  0  0  0
    5.1350    5.4050    0.0000 C   0  0  0  0  0  0  0  0  0  0  0  0
    8.2700    1.2150    0.0000 H   0  0  0  0  0  0  0  0  0  0  0  0
    6.3301    0.0950    0.0000 H   0  0  0  0  0  0  0  0  0  0  0  0
    8.2700    1.5950    0.0000 H   0  0  0  0  0  0  0  0  0  0  0  0
    7.4040    2.7150    0.0000 H   0  0  0  0  0  0  0  0  0  0  0  0
    3.7320   -4.4050    0.0000 H   0  0  0  0  0  0  0  0  0  0  0  0
    3.4030   -4.2150    0.0000 H   0  0  0  0  0  0  0  0  0  0  0  0
    6.0010    2.5250    0.0000 H   0  0  0  0  0  0  0  0  0  0  0  0
    5.1350   -4.2150    0.0000 H   0  0  0  0  0  0  0  0  0  0  0  0
    3.4030   -1.9750    0.0000 H   0  0  0  0  0  0  0  0  0  0  0  0
    5.1350   -1.9750    0.0000 H   0  0  0  0  0  0  0  0  0  0  0  0
    7.0791   -1.1776    0.0000 H   0  0  0  0  0  0  0  0  0  0  0  0
    7.4776   -0.4873    0.0000 H   0  0  0  0  0  0  0  0  0  0  0  0
    1.9264   -1.9873    0.0000 H   0  0  0  0  0  0  0  0  0  0  0  0
    2.3249   -2.6776    0.0000 H   0  0  0  0  0  0  0  0  0  0  0  0
    9.1360    0.7150    0.0000 H   0  0  0  0  0  0  0  0  0  0  0  0
    8.5991    3.0250    0.0000 H   0  0  0  0  0  0  0  0  0  0  0  0
    7.4040    3.7150    0.0000 H   0  0  0  0  0  0  0  0  0  0  0  0
    3.7320   -5.4050    0.0000 H   0  0  0  0  0  0  0  0  0  0  0  0
    2.0000   -3.7850    0.0000 H   0  0  0  0  0  0  0  0  0  0  0  0
    6.5380   -3.7850    0.0000 H   0  0  0  0  0  0  0  0  0  0  0  0
    5.7456    3.2973    0.0000 H   0  0  0  0  0  0  0  0  0  0  0  0
    5.3471    3.9876    0.0000 H   0  0  0  0  0  0  0  0  0  0  0  0
    3.6584    4.0127    0.0000 H   0  0  0  0  0  0  0  0  0  0  0  0
    4.0569    3.3224    0.0000 H   0  0  0  0  0  0  0  0  0  0  0  0
    2.0000   -0.7850    0.0000 H   0  0  0  0  0  0  0  0  0  0  0  0
    3.7130    5.9419    0.0000 H   0  0  0  0  0  0  0  0  0  0  0  0
    2.8660    5.7150    0.0000 H   0  0  0  0  0  0  0  0  0  0  0  0
    3.0930    4.8681    0.0000 H   0  0  0  0  0  0  0  0  0  0  0  0
    5.6720    5.0950    0.0000 H   0  0  0  0  0  0  0  0  0  0  0  0
    5.1350    6.0250    0.0000 H   0  0  0  0  0  0  0  0  0  0  0  0
  1 14  1  0  0  0  0
  1 19  1  0  0  0  0
  2 21  1  0  0  0  0
  2 22  1  0  0  0  0
  3  7  1  0  0  0  0
 22  3  1  1  0  0  0
 19  4  1  1  0  0  0
  4 25  1  0  0  0  0
 13  5  1  6  0  0  0
  5 44  1  0  0  0  0
 15  6  1  1  0  0  0
  6 45  1  0  0  0  0
  7 23  1  0  0  0  0
 16  8  1  6  0  0  0
  8 46  1  0  0  0  0
 17  9  1  1  0  0  0
  9 47  1  0  0  0  0
 18 10  1  6  0  0  0
 10 48  1  0  0  0  0
 20 11  1  6  0  0  0
 11 49  1  0  0  0  0
 12 24  1  0  0  0  0
 12 54  1  0  0  0  0
 13 14  1  0  0  0  0
 13 15  1  0  0  0  0
 13 30  1  0  0  0  0
 14 23  1  1  0  0  0
 14 31  1  0  0  0  0
 15 16  1  0  0  0  0
 15 32  1  0  0  0  0
 16 19  1  0  0  0  0
 16 33  1  0  0  0  0
 17 18  1  0  0  0  0
 17 20  1  0  0  0  0
 17 34  1  0  0  0  0
 18 21  1  0  0  0  0
 18 35  1  0  0  0  0
 19 36  1  0  0  0  0
 20 22  1  0  0  0  0
 20 37  1  0  0  0  0
 21 24  1  1  0  0  0
 21 38  1  0  0  0  0
 22 39  1  0  0  0  0
 23 40  1  0  0  0  0
 23 41  1  0  0  0  0
 24 42  1  0  0  0  0
 24 43  1  0  0  0  0
 25 26  1  0  0  0  0
 25 50  1  0  0  0  0
 25 51  1  0  0  0  0
 26 27  1  0  0  0  0
 26 52  1  0  0  0  0
 26 53  1  0  0  0  0
 27 28  1  0  0  0  0
 27 29  2  0  0  0  0
 28 55  1  0  0  0  0
 28 56  1  0  0  0  0
 28 57  1  0  0  0  0
 29 58  1  0  0  0  0
 29 59  1  0  0  0  0
M  END
> <PUBCHEM_COMPOUND_CID>
101955862

> <PUBCHEM_COMPOUND_CANONICALIZED>
1

> <PUBCHEM_CACTVS_COMPLEXITY>
519

> <PUBCHEM_CACTVS_HBOND_ACCEPTOR>
12

> <PUBCHEM_CACTVS_HBOND_DONOR>
7

> <PUBCHEM_CACTVS_ROTATABLE_BOND>
9

> <PUBCHEM_CACTVS_SUBSKEYS>
AAADceB4PAAAAAAAAAAAAAAAAAAAAAAAAAAkSAAAAAAAAAAAAAAAGgAADAAADBSwgAMCCAAABgCAAgBCAAAAAAAgAAAAAAAAAAgREAIAAQAiQAAFQAAHAAHAYAwAAAAAAAAAAAAAAAAAAAAAAAAAAAAAAA==

> <PUBCHEM_IUPAC_OPENEYE_NAME>
(2R,3S,4S,5R,6S)-2-(hydroxymethyl)-6-[[(2R,3S,4S,5R,6R)-3,4,5-trihydroxy-6-(3-methylbut-3-enoxy)tetrahydropyran-2-yl]methylperoxy]tetrahydropyran-3,4,5-triol

> <PUBCHEM_IUPAC_CAS_NAME>
(2R,3S,4S,5R,6S)-2-(hydroxymethyl)-6-[[(2R,3S,4S,5R,6R)-3,4,5-trihydroxy-6-(3-methylbut-3-enoxy)-2-oxanyl]methyldioxy]oxane-3,4,5-triol

> <PUBCHEM_IUPAC_NAME_MARKUP>
(2<I>R</I>,3<I>S</I>,4<I>S</I>,5<I>R</I>,6<I>S</I>)-2-(hydroxymethyl)-6-[[(2<I>R</I>,3<I>S</I>,4<I>S</I>,5<I>R</I>,6<I>R</I>)-3,4,5-trihydroxy-6-(3-methylbut-3-enoxy)oxan-2-yl]methylperoxy]oxane-3,4,5-triol

> <PUBCHEM_IUPAC_NAME>
(2R,3S,4S,5R,6S)-2-(hydroxymethyl)-6-[[(2R,3S,4S,5R,6R)-3,4,5-trihydroxy-6-(3-methylbut-3-enoxy)oxan-2-yl]methylperoxy]oxane-3,4,5-triol

> <PUBCHEM_IUPAC_SYSTEMATIC_NAME>
(2R,3S,4S,5R,6S)-2-(hydroxymethyl)-6-[[(2R,3S,4S,5R,6R)-6-(3-methylbut-3-enoxy)-3,4,5-tris(oxidanyl)oxan-2-yl]methylperoxy]oxane-3,4,5-triol

> <PUBCHEM_IUPAC_TRADITIONAL_NAME>
(2R,3S,4S,5R,6S)-2-methylol-6-[[(2R,3S,4S,5R,6R)-3,4,5-trihydroxy-6-(3-methylbut-3-enoxy)tetrahydropyran-2-yl]methylperoxy]tetrahydropyran-3,4,5-triol

> <PUBCHEM_IUPAC_INCHI>
InChI=1S/C17H30O12/c1-7(2)3-4-25-16-14(23)13(22)11(20)9(28-16)6-26-29-17-15(24)12(21)10(19)8(5-18)27-17/h8-24H,1,3-6H2,2H3/t8-,9-,10-,11-,12+,13+,14-,15-,16-,17+/m1/s1

> <PUBCHEM_IUPAC_INCHIKEY>
YPKOPRVKBHYAPW-SSNABBPHSA-N

> <PUBCHEM_XLOGP3_AA>
-2.4

> <PUBCHEM_EXACT_MASS>
426.17372639

> <PUBCHEM_MOLECULAR_FORMULA>
C17H30O12

> <PUBCHEM_MOLECULAR_WEIGHT>
426.4

> <PUBCHEM_OPENEYE_CAN_SMILES>
CC(=C)CCOC1C(C(C(C(O1)COOC2C(C(C(C(O2)CO)O)O)O)O)O)O

> <PUBCHEM_OPENEYE_ISO_SMILES>
CC(=C)CCO[C@H]1[C@@H]([C@H]([C@@H]([C@H](O1)COO[C@H]2[C@@H]([C@H]([C@@H]([C@H](O2)CO)O)O)O)O)O)O

> <PUBCHEM_CACTVS_TPSA>
188

> <PUBCHEM_MONOISOTOPIC_WEIGHT>
426.17372639

> <PUBCHEM_TOTAL_CHARGE>
0

> <PUBCHEM_HEAVY_ATOM_COUNT>
29

> <PUBCHEM_ATOM_DEF_STEREO_COUNT>
10

> <PUBCHEM_ATOM_UDEF_STEREO_COUNT>
0

> <PUBCHEM_BOND_DEF_STEREO_COUNT>
0

> <PUBCHEM_BOND_UDEF_STEREO_COUNT>
0

> <PUBCHEM_ISOTOPIC_ATOM_COUNT>
0

> <PUBCHEM_COMPONENT_COUNT>
1

> <PUBCHEM_CACTVS_TAUTO_COUNT>
-1

> <PUBCHEM_COORDINATE_TYPE>
1
5
255

> <PUBCHEM_BONDANNOTATIONS>
18  10  6
20  11  6
14  23  5
21  24  5
22  3  5
19  4  5
13  5  6
15  6  5
16  8  6
17  9  5

$$$$
