 
  -OEChem-10192103422D

 34 35  0     1  0  0  0  0  0999 V2000
    2.6176   -1.0136    0.0000 O   0  0  0  0  0  0  0  0  0  0  0  0
    4.6804   -2.9469    0.0000 O   0  0  0  0  0  0  0  0  0  0  0  0
    7.0151    2.9099    0.0000 O   0  0  0  0  0  0  0  0  0  0  0  0
    4.1924    2.7549    0.0000 O   0  0  0  0  0  0  0  0  0  0  0  0
    2.7686    0.7117    0.0000 O   0  0  0  0  0  0  0  0  0  0  0  0
    3.1106   -2.2149    0.0000 O   0  0  0  0  0  0  0  0  0  0  0  0
    5.3421    3.3582    0.0000 O   0  0  0  0  0  0  0  0  0  0  0  0
    3.1989    1.3362    0.0000 O   0  0  0  0  0  0  0  0  0  0  0  0
    6.1610    0.3365    0.0000 C   0  0  0  0  0  0  0  0  0  0  0  0
    5.9021   -0.6294    0.0000 C   0  0  0  0  0  0  0  0  0  0  0  0
    4.1874   -0.2817    0.0000 C   0  0  3  0  0  0  0  0  0  0  0  0
    5.7904    1.6852    0.0000 C   0  0  3  0  0  0  0  0  0  0  0  0
    4.5294   -1.2214    0.0000 C   0  0  3  0  0  0  0  0  0  0  0  0
    4.9243    1.1852    0.0000 C   0  0  3  0  0  0  0  0  0  0  0  0
    7.5599   -0.1723    0.0000 C   0  0  0  0  0  0  0  0  0  0  0  0
    7.3011   -1.1382    0.0000 C   0  0  0  0  0  0  0  0  0  0  0  0
    3.1912   -0.1946    0.0000 C   0  0  0  0  0  0  0  0  0  0  0  0
    4.1068   -2.1277    0.0000 C   0  0  0  0  0  0  0  0  0  0  0  0
    6.0492    2.6511    0.0000 C   0  0  0  0  0  0  0  0  0  0  0  0
    4.1052    1.7588    0.0000 C   0  0  0  0  0  0  0  0  0  0  0  0
    6.1469   -0.2833    0.0000 H   0  0  0  0  0  0  0  0  0  0  0  0
    5.9202   -1.2491    0.0000 H   0  0  0  0  0  0  0  0  0  0  0  0
    4.1205    0.3347    0.0000 H   0  0  0  0  0  0  0  0  0  0  0  0
    6.4104    1.6871    0.0000 H   0  0  0  0  0  0  0  0  0  0  0  0
    4.9614   -1.6662    0.0000 H   0  0  0  0  0  0  0  0  0  0  0  0
    4.4611    0.7731    0.0000 H   0  0  0  0  0  0  0  0  0  0  0  0
    8.1539   -0.3501    0.0000 H   0  0  0  0  0  0  0  0  0  0  0  0
    7.7548    0.4163    0.0000 H   0  0  0  0  0  0  0  0  0  0  0  0
    7.1062   -1.7268    0.0000 H   0  0  0  0  0  0  0  0  0  0  0  0
    7.8950   -1.3160    0.0000 H   0  0  0  0  0  0  0  0  0  0  0  0
    2.0000   -0.9597    0.0000 H   0  0  0  0  0  0  0  0  0  0  0  0
    4.4184   -3.5088    0.0000 H   0  0  0  0  0  0  0  0  0  0  0  0
    7.1756    3.5088    0.0000 H   0  0  0  0  0  0  0  0  0  0  0  0
    3.6845    3.1106    0.0000 H   0  0  0  0  0  0  0  0  0  0  0  0
  1 17  1  0  0  0  0
  1 31  1  0  0  0  0
  2 18  1  0  0  0  0
  2 32  1  0  0  0  0
  3 19  1  0  0  0  0
  3 33  1  0  0  0  0
  4 20  1  0  0  0  0
  4 34  1  0  0  0  0
  5 17  2  0  0  0  0
  6 18  2  0  0  0  0
  7 19  2  0  0  0  0
  8 20  2  0  0  0  0
  9 11  1  0  0  0  0
  9 12  1  0  0  0  0
  9 15  1  0  0  0  0
  9 21  1  0  0  0  0
 10 13  1  0  0  0  0
 10 14  1  0  0  0  0
 10 16  1  0  0  0  0
 10 22  1  0  0  0  0
 11 13  1  0  0  0  0
 11 17  1  0  0  0  0
 11 23  1  0  0  0  0
 12 14  1  0  0  0  0
 12 19  1  0  0  0  0
 12 24  1  0  0  0  0
 13 18  1  0  0  0  0
 13 25  1  0  0  0  0
 14 20  1  0  0  0  0
 14 26  1  0  0  0  0
 15 16  1  0  0  0  0
 15 27  1  0  0  0  0
 15 28  1  0  0  0  0
 16 29  1  0  0  0  0
 16 30  1  0  0  0  0
M  END
> <PUBCHEM_COMPOUND_CID>
22177431

> <PUBCHEM_COMPOUND_CANONICALIZED>
1

> <PUBCHEM_CACTVS_COMPLEXITY>
400

> <PUBCHEM_CACTVS_HBOND_ACCEPTOR>
8

> <PUBCHEM_CACTVS_HBOND_DONOR>
4

> <PUBCHEM_CACTVS_ROTATABLE_BOND>
4

> <PUBCHEM_CACTVS_SUBSKEYS>
AAADccBwPAAAAAAAAAAAAAAAAAAAAAAAAAAwYMAAAAAAAAAAAAAAGgAACAAADQCAgAAACAAAAgAIAACQCAAAAAAAAAAAAAEAAAAAABIAAAAAQAAEAAAAAAHL7vCOgAAAAAAAAACAAAQAACAAAAAAAAAAAA==

> <PUBCHEM_IUPAC_OPENEYE_NAME>
bicyclo[2.2.2]octane-2,3,5,6-tetracarboxylic acid

> <PUBCHEM_IUPAC_CAS_NAME>
bicyclo[2.2.2]octane-2,3,5,6-tetracarboxylic acid

> <PUBCHEM_IUPAC_NAME_MARKUP>
bicyclo[2.2.2]octane-2,3,5,6-tetracarboxylic acid

> <PUBCHEM_IUPAC_NAME>
bicyclo[2.2.2]octane-2,3,5,6-tetracarboxylic acid

> <PUBCHEM_IUPAC_SYSTEMATIC_NAME>
bicyclo[2.2.2]octane-2,3,5,6-tetracarboxylic acid

> <PUBCHEM_IUPAC_TRADITIONAL_NAME>
bicyclo[2.2.2]octane-2,3,5,6-tetracarboxylic acid

> <PUBCHEM_IUPAC_INCHI>
InChI=1S/C12H14O8/c13-9(14)5-3-1-2-4(7(5)11(17)18)8(12(19)20)6(3)10(15)16/h3-8H,1-2H2,(H,13,14)(H,15,16)(H,17,18)(H,19,20)

> <PUBCHEM_IUPAC_INCHIKEY>
XQBSPQLKNWMPMG-UHFFFAOYSA-N

> <PUBCHEM_XLOGP3_AA>
-0.5

> <PUBCHEM_EXACT_MASS>
286.06886740

> <PUBCHEM_MOLECULAR_FORMULA>
C12H14O8

> <PUBCHEM_MOLECULAR_WEIGHT>
286.23

> <PUBCHEM_OPENEYE_CAN_SMILES>
C1CC2C(C(C1C(C2C(=O)O)C(=O)O)C(=O)O)C(=O)O

> <PUBCHEM_OPENEYE_ISO_SMILES>
C1CC2C(C(C1C(C2C(=O)O)C(=O)O)C(=O)O)C(=O)O

> <PUBCHEM_CACTVS_TPSA>
149

> <PUBCHEM_MONOISOTOPIC_WEIGHT>
286.06886740

> <PUBCHEM_TOTAL_CHARGE>
0

> <PUBCHEM_HEAVY_ATOM_COUNT>
20

> <PUBCHEM_ATOM_DEF_STEREO_COUNT>
0

> <PUBCHEM_ATOM_UDEF_STEREO_COUNT>
4

> <PUBCHEM_BOND_DEF_STEREO_COUNT>
0

> <PUBCHEM_BOND_UDEF_STEREO_COUNT>
0

> <PUBCHEM_ISOTOPIC_ATOM_COUNT>
0

> <PUBCHEM_COMPONENT_COUNT>
1

> <PUBCHEM_CACTVS_TAUTO_COUNT>
-1

> <PUBCHEM_COORDINATE_TYPE>
1
5
255

> <PUBCHEM_BONDANNOTATIONS>
11  17  3
12  19  3
13  18  3
14  20  3

$$$$
