 
  -OEChem-10192104072D

 48 50  0     1  0  0  0  0  0999 V2000
    8.1962   -0.2610    0.0000 O   0  0  0  0  0  0  0  0  0  0  0  0
    6.8301   -0.6270    0.0000 O   0  0  0  0  0  0  0  0  0  0  0  0
    4.7320    0.7390    0.0000 O   0  0  0  0  0  0  0  0  0  0  0  0
    9.5622   -2.6270    0.0000 O   0  0  0  0  0  0  0  0  0  0  0  0
    6.8301   -3.3590    0.0000 O   0  0  0  0  0  0  0  0  0  0  0  0
    2.0000    0.7390    0.0000 O   0  0  0  0  0  0  0  0  0  0  0  0
    6.9641    1.6051    0.0000 O   0  0  0  0  0  0  0  0  0  0  0  0
    4.9641   -0.1270    0.0000 O   0  0  0  0  0  0  0  0  0  0  0  0
    9.0622    0.2390    0.0000 O   0  0  0  0  0  0  0  0  0  0  0  0
    5.9641   -1.1270    0.0000 O   0  0  0  0  0  0  0  0  0  0  0  0
    8.1962    1.7390    0.0000 O   0  0  0  0  0  0  0  0  0  0  0  0
    4.7320    2.7390    0.0000 O   0  0  0  0  0  0  0  0  0  0  0  0
    6.4641    2.7390    0.0000 O   0  0  0  0  0  0  0  0  0  0  0  0
    6.4641    0.7390    0.0000 C   0  0  3  0  0  0  0  0  0  0  0  0
    7.3301    0.2390    0.0000 C   0  0  0  0  0  0  0  0  0  0  0  0
    5.5981    1.2390    0.0000 C   0  0  3  0  0  0  0  0  0  0  0  0
    9.0622   -1.7610    0.0000 C   0  0  3  0  0  0  0  0  0  0  0  0
    6.8301   -2.3590    0.0000 C   0  0  3  0  0  0  0  0  0  0  0  0
    8.1962   -1.2610    0.0000 C   0  0  0  0  0  0  0  0  0  0  0  0
    7.3301   -1.4930    0.0000 C   0  0  0  0  0  0  0  0  0  0  0  0
    3.0000    0.7390    0.0000 C   0  0  3  0  0  0  0  0  0  0  0  0
   10.0622   -1.7610    0.0000 C   0  0  0  0  0  0  0  0  0  0  0  0
    5.9641   -2.8590    0.0000 C   0  0  0  0  0  0  0  0  0  0  0  0
    3.8660    1.2390    0.0000 C   0  0  0  0  0  0  0  0  0  0  0  0
    2.5000   -0.1270    0.0000 C   0  0  0  0  0  0  0  0  0  0  0  0
    5.9641   -0.1270    0.0000 C   0  0  0  0  0  0  0  0  0  0  0  0
    8.1962    0.7390    0.0000 C   0  0  0  0  0  0  0  0  0  0  0  0
    5.5981    2.2390    0.0000 C   0  0  0  0  0  0  0  0  0  0  0  0
    5.5981    0.6190    0.0000 H   0  0  0  0  0  0  0  0  0  0  0  0
    8.6238   -2.1994    0.0000 H   0  0  0  0  0  0  0  0  0  0  0  0
    7.4290   -2.5195    0.0000 H   0  0  0  0  0  0  0  0  0  0  0  0
    2.8395    1.3379    0.0000 H   0  0  0  0  0  0  0  0  0  0  0  0
    7.5856   -1.1533    0.0000 H   0  0  0  0  0  0  0  0  0  0  0  0
    7.9841   -1.8436    0.0000 H   0  0  0  0  0  0  0  0  0  0  0  0
    7.8051   -1.8915    0.0000 H   0  0  0  0  0  0  0  0  0  0  0  0
    7.8051   -1.0945    0.0000 H   0  0  0  0  0  0  0  0  0  0  0  0
   10.6448   -1.9730    0.0000 H   0  0  0  0  0  0  0  0  0  0  0  0
   10.1698   -1.1504    0.0000 H   0  0  0  0  0  0  0  0  0  0  0  0
    5.5656   -2.3841    0.0000 H   0  0  0  0  0  0  0  0  0  0  0  0
    5.5656   -3.3340    0.0000 H   0  0  0  0  0  0  0  0  0  0  0  0
    4.2646    1.7140    0.0000 H   0  0  0  0  0  0  0  0  0  0  0  0
    3.4675    1.7140    0.0000 H   0  0  0  0  0  0  0  0  0  0  0  0
    2.0250   -0.5255    0.0000 H   0  0  0  0  0  0  0  0  0  0  0  0
    2.9750   -0.5255    0.0000 H   0  0  0  0  0  0  0  0  0  0  0  0
    6.6541    2.1420    0.0000 H   0  0  0  0  0  0  0  0  0  0  0  0
    4.6541   -0.6639    0.0000 H   0  0  0  0  0  0  0  0  0  0  0  0
    9.5991    0.5490    0.0000 H   0  0  0  0  0  0  0  0  0  0  0  0
    4.7320    3.3590    0.0000 H   0  0  0  0  0  0  0  0  0  0  0  0
  1 15  1  0  0  0  0
  1 19  1  0  0  0  0
  2 15  1  0  0  0  0
  2 20  1  0  0  0  0
  3 16  1  0  0  0  0
  3 24  1  0  0  0  0
  4 17  1  0  0  0  0
  4 22  1  0  0  0  0
  5 18  1  0  0  0  0
  5 23  1  0  0  0  0
  6 21  1  0  0  0  0
  6 25  1  0  0  0  0
  7 14  1  0  0  0  0
  7 45  1  0  0  0  0
  8 26  1  0  0  0  0
  8 46  1  0  0  0  0
  9 27  1  0  0  0  0
  9 47  1  0  0  0  0
 10 26  2  0  0  0  0
 11 27  2  0  0  0  0
 12 28  1  0  0  0  0
 12 48  1  0  0  0  0
 13 28  2  0  0  0  0
 14 15  1  0  0  0  0
 14 16  1  0  0  0  0
 14 26  1  0  0  0  0
 15 27  1  0  0  0  0
 16 28  1  0  0  0  0
 16 29  1  0  0  0  0
 17 19  1  0  0  0  0
 17 22  1  0  0  0  0
 17 30  1  0  0  0  0
 18 20  1  0  0  0  0
 18 23  1  0  0  0  0
 18 31  1  0  0  0  0
 19 33  1  0  0  0  0
 19 34  1  0  0  0  0
 20 35  1  0  0  0  0
 20 36  1  0  0  0  0
 21 24  1  0  0  0  0
 21 25  1  0  0  0  0
 21 32  1  0  0  0  0
 22 37  1  0  0  0  0
 22 38  1  0  0  0  0
 23 39  1  0  0  0  0
 23 40  1  0  0  0  0
 24 41  1  0  0  0  0
 24 42  1  0  0  0  0
 25 43  1  0  0  0  0
 25 44  1  0  0  0  0
M  END
> <PUBCHEM_COMPOUND_CID>
130194325

> <PUBCHEM_COMPOUND_CANONICALIZED>
1

> <PUBCHEM_CACTVS_COMPLEXITY>
619

> <PUBCHEM_CACTVS_HBOND_ACCEPTOR>
13

> <PUBCHEM_CACTVS_HBOND_DONOR>
4

> <PUBCHEM_CACTVS_ROTATABLE_BOND>
14

> <PUBCHEM_CACTVS_SUBSKEYS>
AAADceBwPAAAAAAAAAAAAAAAEiQAAAAAAAAAAAAAAAAAAAAAAAAAGgAACAAADFSggAIACAAABgAIAACQCAIAAAAAAAAAAAFAAAARABYAAAQiQAAFIAAHAADLJgAKAAAAAAAAAAAAAAAAAAAAAAAAAAAAAA==

> <PUBCHEM_IUPAC_OPENEYE_NAME>
2-hydroxy-1,1,3-tris(oxiran-2-ylmethoxy)propane-1,2,3-tricarboxylic acid

> <PUBCHEM_IUPAC_CAS_NAME>
2-hydroxy-1,1,3-tris(2-oxiranylmethoxy)propane-1,2,3-tricarboxylic acid

> <PUBCHEM_IUPAC_NAME_MARKUP>
2-hydroxy-1,1,3-tris(oxiran-2-ylmethoxy)propane-1,2,3-tricarboxylic acid

> <PUBCHEM_IUPAC_NAME>
2-hydroxy-1,1,3-tris(oxiran-2-ylmethoxy)propane-1,2,3-tricarboxylic acid

> <PUBCHEM_IUPAC_SYSTEMATIC_NAME>
2-oxidanyl-1,1,3-tris(oxiran-2-ylmethoxy)propane-1,2,3-tricarboxylic acid

> <PUBCHEM_IUPAC_TRADITIONAL_NAME>
1,1,3-triglycidoxy-2-hydroxy-propane-1,2,3-tricarboxylic acid

> <PUBCHEM_IUPAC_INCHI>
InChI=1S/C15H20O13/c16-11(17)10(26-4-7-1-23-7)14(22,12(18)19)15(13(20)21,27-5-8-2-24-8)28-6-9-3-25-9/h7-10,22H,1-6H2,(H,16,17)(H,18,19)(H,20,21)

> <PUBCHEM_IUPAC_INCHIKEY>
CRQQRIURKMFSHZ-UHFFFAOYSA-N

> <PUBCHEM_XLOGP3_AA>
-3.2

> <PUBCHEM_EXACT_MASS>
408.09039069

> <PUBCHEM_MOLECULAR_FORMULA>
C15H20O13

> <PUBCHEM_MOLECULAR_WEIGHT>
408.31

> <PUBCHEM_OPENEYE_CAN_SMILES>
C1C(O1)COC(C(=O)O)C(C(=O)O)(C(C(=O)O)(OCC2CO2)OCC3CO3)O

> <PUBCHEM_OPENEYE_ISO_SMILES>
C1C(O1)COC(C(=O)O)C(C(=O)O)(C(C(=O)O)(OCC2CO2)OCC3CO3)O

> <PUBCHEM_CACTVS_TPSA>
197

> <PUBCHEM_MONOISOTOPIC_WEIGHT>
408.09039069

> <PUBCHEM_TOTAL_CHARGE>
0

> <PUBCHEM_HEAVY_ATOM_COUNT>
28

> <PUBCHEM_ATOM_DEF_STEREO_COUNT>
0

> <PUBCHEM_ATOM_UDEF_STEREO_COUNT>
5

> <PUBCHEM_BOND_DEF_STEREO_COUNT>
0

> <PUBCHEM_BOND_UDEF_STEREO_COUNT>
0

> <PUBCHEM_ISOTOPIC_ATOM_COUNT>
0

> <PUBCHEM_COMPONENT_COUNT>
1

> <PUBCHEM_CACTVS_TAUTO_COUNT>
-1

> <PUBCHEM_COORDINATE_TYPE>
1
5
255

> <PUBCHEM_BONDANNOTATIONS>
16  28  3
17  19  3
18  20  3
21  24  3
14  7  3

$$$$
