 
  -OEChem-10192104202D

 92 96  0     1  0  0  0  0  0999 V2000
    9.3158   -0.1603    0.0000 O   0  0  0  0  0  0  0  0  0  0  0  0
    6.1434    0.8580    0.0000 O   0  0  0  0  0  0  0  0  0  0  0  0
    8.8604    5.0644    0.0000 O   0  0  0  0  0  0  0  0  0  0  0  0
    5.1350   -4.9967    0.0000 O   0  0  0  0  0  0  0  0  0  0  0  0
   10.4427    4.3600    0.0000 O   0  0  0  0  0  0  0  0  0  0  0  0
    6.8671   -4.9967    0.0000 O   0  0  0  0  0  0  0  0  0  0  0  0
   10.0806    7.8051    0.0000 O   0  0  0  0  0  0  0  0  0  0  0  0
   11.2562    6.1870    0.0000 O   0  0  0  0  0  0  0  0  0  0  0  0
    8.0916    7.5960    0.0000 O   0  0  0  0  0  0  0  0  0  0  0  0
    5.1350   -7.9967    0.0000 O   0  0  0  0  0  0  0  0  0  0  0  0
    3.4030   -6.9967    0.0000 O   0  0  0  0  0  0  0  0  0  0  0  0
    6.8671   -6.9967    0.0000 O   0  0  0  0  0  0  0  0  0  0  0  0
   11.6183    2.7419    0.0000 O   0  0  0  0  0  0  0  0  0  0  0  0
    8.5991   -3.9967    0.0000 O   0  0  0  0  0  0  0  0  0  0  0  0
    6.6903    6.5779    0.0000 O   0  0  0  0  0  0  0  0  0  0  0  0
    2.5369   -5.4967    0.0000 O   0  0  0  0  0  0  0  0  0  0  0  0
    7.8376    0.4979    0.0000 C   0  0  1  0  0  0  0  0  0  0  0  0
    7.7331   -0.4967    0.0000 C   0  0  2  0  0  0  0  0  0  0  0  0
    8.8158    0.7058    0.0000 C   0  0  1  0  0  0  0  0  0  0  0  0
    8.6466   -0.9034    0.0000 C   0  0  0  0  0  0  0  0  0  0  0  0
    6.8671   -0.9967    0.0000 C   0  0  0  0  0  0  0  0  0  0  0  0
    7.0945    1.1670    0.0000 C   0  0  0  0  0  0  0  0  0  0  0  0
    9.2225    1.6193    0.0000 C   0  0  0  0  0  0  0  0  0  0  0  0
    6.8671   -1.9967    0.0000 C   0  0  0  0  0  0  0  0  0  0  0  0
   10.2170    1.7238    0.0000 C   0  0  0  0  0  0  0  0  0  0  0  0
    8.6347    2.4283    0.0000 C   0  0  0  0  0  0  0  0  0  0  0  0
    9.6739    6.8915    0.0000 C   0  0  2  0  0  0  0  0  0  0  0  0
   10.2617    6.0825    0.0000 C   0  0  2  0  0  0  0  0  0  0  0  0
    8.6794    6.7870    0.0000 C   0  0  1  0  0  0  0  0  0  0  0  0
    9.8549    5.1690    0.0000 C   0  0  1  0  0  0  0  0  0  0  0  0
    5.1350   -6.9967    0.0000 C   0  0  1  0  0  0  0  0  0  0  0  0
    8.2726    5.8735    0.0000 C   0  0  1  0  0  0  0  0  0  0  0  0
    4.2690   -6.4967    0.0000 C   0  0  1  0  0  0  0  0  0  0  0  0
    6.0010   -6.4967    0.0000 C   0  0  2  0  0  0  0  0  0  0  0  0
    7.7331   -2.4967    0.0000 C   0  0  0  0  0  0  0  0  0  0  0  0
    6.0010   -5.4967    0.0000 C   0  0  1  0  0  0  0  0  0  0  0  0
    4.2690   -5.4967    0.0000 C   0  0  1  0  0  0  0  0  0  0  0  0
    6.0010   -2.4967    0.0000 C   0  0  0  0  0  0  0  0  0  0  0  0
   10.6238    2.6374    0.0000 C   0  0  0  0  0  0  0  0  0  0  0  0
   10.0360    3.4464    0.0000 C   0  0  0  0  0  0  0  0  0  0  0  0
    9.0414    3.3419    0.0000 C   0  0  0  0  0  0  0  0  0  0  0  0
    6.8671   -3.9967    0.0000 C   0  0  0  0  0  0  0  0  0  0  0  0
    7.7331   -3.4967    0.0000 C   0  0  0  0  0  0  0  0  0  0  0  0
    6.0010   -3.4967    0.0000 C   0  0  0  0  0  0  0  0  0  0  0  0
    7.2781    5.7689    0.0000 C   0  0  0  0  0  0  0  0  0  0  0  0
    3.4030   -4.9967    0.0000 C   0  0  0  0  0  0  0  0  0  0  0  0
   12.2061    1.9329    0.0000 C   0  0  0  0  0  0  0  0  0  0  0  0
    9.4651   -3.4967    0.0000 C   0  0  0  0  0  0  0  0  0  0  0  0
    7.2588    0.2757    0.0000 H   0  0  0  0  0  0  0  0  0  0  0  0
    7.2131   -0.1590    0.0000 H   0  0  0  0  0  0  0  0  0  0  0  0
    9.4349    0.7382    0.0000 H   0  0  0  0  0  0  0  0  0  0  0  0
    8.3366   -1.4403    0.0000 H   0  0  0  0  0  0  0  0  0  0  0  0
    9.1482   -1.2678    0.0000 H   0  0  0  0  0  0  0  0  0  0  0  0
    6.6550   -0.4141    0.0000 H   0  0  0  0  0  0  0  0  0  0  0  0
    6.2565   -1.1043    0.0000 H   0  0  0  0  0  0  0  0  0  0  0  0
    7.5830    1.5487    0.0000 H   0  0  0  0  0  0  0  0  0  0  0  0
    6.8034    1.7144    0.0000 H   0  0  0  0  0  0  0  0  0  0  0  0
   10.5814    1.2222    0.0000 H   0  0  0  0  0  0  0  0  0  0  0  0
    8.0181    2.3635    0.0000 H   0  0  0  0  0  0  0  0  0  0  0  0
   10.2905    6.9563    0.0000 H   0  0  0  0  0  0  0  0  0  0  0  0
   10.6261    5.5809    0.0000 H   0  0  0  0  0  0  0  0  0  0  0  0
    8.0628    6.7222    0.0000 H   0  0  0  0  0  0  0  0  0  0  0  0
    9.6028    4.6026    0.0000 H   0  0  0  0  0  0  0  0  0  0  0  0
    4.5981   -7.3067    0.0000 H   0  0  0  0  0  0  0  0  0  0  0  0
    8.0204    5.3071    0.0000 H   0  0  0  0  0  0  0  0  0  0  0  0
    4.2690   -7.1167    0.0000 H   0  0  0  0  0  0  0  0  0  0  0  0
    6.0010   -7.1167    0.0000 H   0  0  0  0  0  0  0  0  0  0  0  0
    6.0010   -4.8767    0.0000 H   0  0  0  0  0  0  0  0  0  0  0  0
    4.2690   -4.8767    0.0000 H   0  0  0  0  0  0  0  0  0  0  0  0
    8.2700   -2.1867    0.0000 H   0  0  0  0  0  0  0  0  0  0  0  0
    5.6827    1.2728    0.0000 H   0  0  0  0  0  0  0  0  0  0  0  0
    5.4641   -2.1867    0.0000 H   0  0  0  0  0  0  0  0  0  0  0  0
    8.6770    3.8435    0.0000 H   0  0  0  0  0  0  0  0  0  0  0  0
    5.4641   -3.8067    0.0000 H   0  0  0  0  0  0  0  0  0  0  0  0
    6.7208    5.4971    0.0000 H   0  0  0  0  0  0  0  0  0  0  0  0
    7.4490    5.1730    0.0000 H   0  0  0  0  0  0  0  0  0  0  0  0
    3.8015   -4.5217    0.0000 H   0  0  0  0  0  0  0  0  0  0  0  0
    3.0044   -4.5217    0.0000 H   0  0  0  0  0  0  0  0  0  0  0  0
    9.7162    8.3067    0.0000 H   0  0  0  0  0  0  0  0  0  0  0  0
   11.5084    6.7534    0.0000 H   0  0  0  0  0  0  0  0  0  0  0  0
    8.3438    8.1624    0.0000 H   0  0  0  0  0  0  0  0  0  0  0  0
    5.6720   -8.3067    0.0000 H   0  0  0  0  0  0  0  0  0  0  0  0
    3.4030   -7.6167    0.0000 H   0  0  0  0  0  0  0  0  0  0  0  0
    7.4040   -6.6867    0.0000 H   0  0  0  0  0  0  0  0  0  0  0  0
    6.0737    6.5131    0.0000 H   0  0  0  0  0  0  0  0  0  0  0  0
    2.0000   -5.1867    0.0000 H   0  0  0  0  0  0  0  0  0  0  0  0
   11.7045    1.5685    0.0000 H   0  0  0  0  0  0  0  0  0  0  0  0
   12.5705    1.4313    0.0000 H   0  0  0  0  0  0  0  0  0  0  0  0
   12.7077    2.2973    0.0000 H   0  0  0  0  0  0  0  0  0  0  0  0
    9.7751   -4.0336    0.0000 H   0  0  0  0  0  0  0  0  0  0  0  0
   10.0021   -3.1867    0.0000 H   0  0  0  0  0  0  0  0  0  0  0  0
    9.1551   -2.9597    0.0000 H   0  0  0  0  0  0  0  0  0  0  0  0
  1 19  1  0  0  0  0
  1 20  1  0  0  0  0
  2 22  1  0  0  0  0
  2 71  1  0  0  0  0
  3 30  1  0  0  0  0
  3 32  1  0  0  0  0
  4 36  1  0  0  0  0
  4 37  1  0  0  0  0
 30  5  1  6  0  0  0
  5 40  1  0  0  0  0
 36  6  1  1  0  0  0
  6 42  1  0  0  0  0
 27  7  1  6  0  0  0
  7 79  1  0  0  0  0
 28  8  1  1  0  0  0
  8 80  1  0  0  0  0
 29  9  1  1  0  0  0
  9 81  1  0  0  0  0
 31 10  1  1  0  0  0
 10 82  1  0  0  0  0
 33 11  1  6  0  0  0
 11 83  1  0  0  0  0
 34 12  1  6  0  0  0
 12 84  1  0  0  0  0
 13 39  1  0  0  0  0
 13 47  1  0  0  0  0
 14 43  1  0  0  0  0
 14 48  1  0  0  0  0
 15 45  1  0  0  0  0
 15 85  1  0  0  0  0
 16 46  1  0  0  0  0
 16 86  1  0  0  0  0
 17 18  1  0  0  0  0
 17 19  1  0  0  0  0
 17 22  1  6  0  0  0
 17 49  1  0  0  0  0
 18 20  1  0  0  0  0
 18 21  1  6  0  0  0
 18 50  1  0  0  0  0
 19 23  1  1  0  0  0
 19 51  1  0  0  0  0
 20 52  1  0  0  0  0
 20 53  1  0  0  0  0
 21 24  1  0  0  0  0
 21 54  1  0  0  0  0
 21 55  1  0  0  0  0
 22 56  1  0  0  0  0
 22 57  1  0  0  0  0
 23 25  2  0  0  0  0
 23 26  1  0  0  0  0
 24 35  2  0  0  0  0
 24 38  1  0  0  0  0
 25 39  1  0  0  0  0
 25 58  1  0  0  0  0
 26 41  2  0  0  0  0
 26 59  1  0  0  0  0
 27 28  1  0  0  0  0
 27 29  1  0  0  0  0
 27 60  1  0  0  0  0
 28 30  1  0  0  0  0
 28 61  1  0  0  0  0
 29 32  1  0  0  0  0
 29 62  1  0  0  0  0
 30 63  1  0  0  0  0
 31 33  1  0  0  0  0
 31 34  1  0  0  0  0
 31 64  1  0  0  0  0
 32 45  1  6  0  0  0
 32 65  1  0  0  0  0
 33 37  1  0  0  0  0
 33 66  1  0  0  0  0
 34 36  1  0  0  0  0
 34 67  1  0  0  0  0
 35 43  1  0  0  0  0
 35 70  1  0  0  0  0
 36 68  1  0  0  0  0
 37 46  1  1  0  0  0
 37 69  1  0  0  0  0
 38 44  2  0  0  0  0
 38 72  1  0  0  0  0
 39 40  2  0  0  0  0
 40 41  1  0  0  0  0
 41 73  1  0  0  0  0
 42 43  2  0  0  0  0
 42 44  1  0  0  0  0
 44 74  1  0  0  0  0
 45 75  1  0  0  0  0
 45 76  1  0  0  0  0
 46 77  1  0  0  0  0
 46 78  1  0  0  0  0
 47 87  1  0  0  0  0
 47 88  1  0  0  0  0
 47 89  1  0  0  0  0
 48 90  1  0  0  0  0
 48 91  1  0  0  0  0
 48 92  1  0  0  0  0
M  END
> <PUBCHEM_COMPOUND_CID>
10009802

> <PUBCHEM_COMPOUND_CANONICALIZED>
1

> <PUBCHEM_CACTVS_COMPLEXITY>
978

> <PUBCHEM_CACTVS_HBOND_ACCEPTOR>
16

> <PUBCHEM_CACTVS_HBOND_DONOR>
9

> <PUBCHEM_CACTVS_ROTATABLE_BOND>
12

> <PUBCHEM_CACTVS_SUBSKEYS>
AAADcfB8PgAAAAAAAAAAAAAAAAAAASAAAAA0aIEAAAAAAAABQAAAGgAACAAADRSwmAMyDoAABgCAAiBCAAACCAAgIAAIiAAGiIgdNiKEMRqieCKlwBEPqAfA4PwOoAABAAAAQABAAAIAAACAAAAAAAAAAA==

> <PUBCHEM_IUPAC_OPENEYE_NAME>
(2R,3S,4S,5R,6S)-2-(hydroxymethyl)-6-[4-[[(3R,4R,5S)-4-(hydroxymethyl)-5-[3-methoxy-4-[(2S,3R,4S,5S,6R)-3,4,5-trihydroxy-6-(hydroxymethyl)tetrahydropyran-2-yl]oxy-phenyl]tetrahydrofuran-3-yl]methyl]-2-methoxy-phenoxy]tetrahydropyran-3,4,5-triol

> <PUBCHEM_IUPAC_CAS_NAME>
(2R,3S,4S,5R,6S)-2-(hydroxymethyl)-6-[4-[[(3R,4R,5S)-4-(hydroxymethyl)-5-[3-methoxy-4-[[(2S,3R,4S,5S,6R)-3,4,5-trihydroxy-6-(hydroxymethyl)-2-oxanyl]oxy]phenyl]-3-oxolanyl]methyl]-2-methoxyphenoxy]oxane-3,4,5-triol

> <PUBCHEM_IUPAC_NAME_MARKUP>
(2<I>R</I>,3<I>S</I>,4<I>S</I>,5<I>R</I>,6<I>S</I>)-2-(hydroxymethyl)-6-[4-[[(3<I>R</I>,4<I>R</I>,5<I>S</I>)-4-(hydroxymethyl)-5-[3-methoxy-4-[(2<I>S</I>,3<I>R</I>,4<I>S</I>,5<I>S</I>,6<I>R</I>)-3,4,5-trihydroxy-6-(hydroxymethyl)oxan-2-yl]oxyphenyl]oxolan-3-yl]methyl]-2-methoxyphenoxy]oxane-3,4,5-triol

> <PUBCHEM_IUPAC_NAME>
(2R,3S,4S,5R,6S)-2-(hydroxymethyl)-6-[4-[[(3R,4R,5S)-4-(hydroxymethyl)-5-[3-methoxy-4-[(2S,3R,4S,5S,6R)-3,4,5-trihydroxy-6-(hydroxymethyl)oxan-2-yl]oxyphenyl]oxolan-3-yl]methyl]-2-methoxyphenoxy]oxane-3,4,5-triol

> <PUBCHEM_IUPAC_SYSTEMATIC_NAME>
(2R,3S,4S,5R,6S)-2-(hydroxymethyl)-6-[4-[[(3R,4R,5S)-4-(hydroxymethyl)-5-[4-[(2S,3R,4S,5S,6R)-6-(hydroxymethyl)-3,4,5-tris(oxidanyl)oxan-2-yl]oxy-3-methoxy-phenyl]oxolan-3-yl]methyl]-2-methoxy-phenoxy]oxane-3,4,5-triol

> <PUBCHEM_IUPAC_TRADITIONAL_NAME>
(2S,3R,4S,5S,6R)-2-[2-methoxy-4-[[(3R,4R,5S)-5-[3-methoxy-4-[(2S,3R,4S,5S,6R)-3,4,5-trihydroxy-6-methylol-tetrahydropyran-2-yl]oxy-phenyl]-4-methylol-tetrahydrofuran-3-yl]methyl]phenoxy]-6-methylol-tetrahydropyran-3,4,5-triol

> <PUBCHEM_IUPAC_INCHI>
InChI=1S/C32H44O16/c1-42-20-8-14(3-5-18(20)45-31-28(40)26(38)24(36)22(11-34)47-31)7-16-13-44-30(17(16)10-33)15-4-6-19(21(9-15)43-2)46-32-29(41)27(39)25(37)23(12-35)48-32/h3-6,8-9,16-17,22-41H,7,10-13H2,1-2H3/t16-,17-,22+,23+,24+,25+,26-,27-,28+,29+,30+,31+,32+/m0/s1

> <PUBCHEM_IUPAC_INCHIKEY>
PBLWZMSRSJTRHJ-NCIRKIHRSA-N

> <PUBCHEM_XLOGP3_AA>
-1.2

> <PUBCHEM_EXACT_MASS>
684.26293531

> <PUBCHEM_MOLECULAR_FORMULA>
C32H44O16

> <PUBCHEM_MOLECULAR_WEIGHT>
684.7

> <PUBCHEM_OPENEYE_CAN_SMILES>
COC1=C(C=CC(=C1)CC2COC(C2CO)C3=CC(=C(C=C3)OC4C(C(C(C(O4)CO)O)O)O)OC)OC5C(C(C(C(O5)CO)O)O)O

> <PUBCHEM_OPENEYE_ISO_SMILES>
COC1=C(C=CC(=C1)C[C@H]2CO[C@@H]([C@H]2CO)C3=CC(=C(C=C3)O[C@H]4[C@@H]([C@H]([C@@H]([C@H](O4)CO)O)O)O)OC)O[C@H]5[C@@H]([C@H]([C@@H]([C@H](O5)CO)O)O)O

> <PUBCHEM_CACTVS_TPSA>
247

> <PUBCHEM_MONOISOTOPIC_WEIGHT>
684.26293531

> <PUBCHEM_TOTAL_CHARGE>
0

> <PUBCHEM_HEAVY_ATOM_COUNT>
48

> <PUBCHEM_ATOM_DEF_STEREO_COUNT>
13

> <PUBCHEM_ATOM_UDEF_STEREO_COUNT>
0

> <PUBCHEM_BOND_DEF_STEREO_COUNT>
0

> <PUBCHEM_BOND_UDEF_STEREO_COUNT>
0

> <PUBCHEM_ISOTOPIC_ATOM_COUNT>
0

> <PUBCHEM_COMPONENT_COUNT>
1

> <PUBCHEM_CACTVS_TAUTO_COUNT>
1

> <PUBCHEM_COORDINATE_TYPE>
1
5
255

> <PUBCHEM_BONDANNOTATIONS>
31  10  5
33  11  6
34  12  6
17  22  6
18  21  6
19  23  5
23  25  8
23  26  8
24  35  8
24  38  8
25  39  8
26  41  8
32  45  6
35  43  8
37  46  5
38  44  8
39  40  8
40  41  8
42  43  8
42  44  8
30  5  6
36  6  5
27  7  6
28  8  5
29  9  5

$$$$
