 
  -OEChem-10192104452D

 58 60  0     1  0  0  0  0  0999 V2000
    7.9497   -1.2500    0.0000 O   0  0  0  0  0  0  0  0  0  0  0  0
    4.4381   -0.1567    0.0000 O   0  0  0  0  0  0  0  0  0  0  0  0
    6.2177   -0.2500    0.0000 O   0  0  0  0  0  0  0  0  0  0  0  0
    4.4769    2.4306    0.0000 O   0  0  0  0  0  0  0  0  0  0  0  0
    6.2177   -3.2500    0.0000 O   0  0  0  0  0  0  0  0  0  0  0  0
    5.9903    1.9136    0.0000 O   0  0  0  0  0  0  0  0  0  0  0  0
    9.6818   -1.2500    0.0000 O   0  0  0  0  0  0  0  0  0  0  0  0
    7.9497   -4.2500    0.0000 O   0  0  0  0  0  0  0  0  0  0  0  0
    9.6818   -3.2500    0.0000 O   0  0  0  0  0  0  0  0  0  0  0  0
    2.5369    1.4524    0.0000 O   0  0  0  0  0  0  0  0  0  0  0  0
   10.5478    4.2500    0.0000 O   0  0  0  0  0  0  0  0  0  0  0  0
    4.2690    1.4524    0.0000 C   0  0  1  0  0  0  0  0  0  0  0  0
    7.0837   -1.7500    0.0000 C   0  0  1  0  0  0  0  0  0  0  0  0
    7.0837   -2.7500    0.0000 C   0  0  2  0  0  0  0  0  0  0  0  0
    5.2471    1.2445    0.0000 C   0  0  2  0  0  0  0  0  0  0  0  0
    7.9497   -3.2500    0.0000 C   0  0  1  0  0  0  0  0  0  0  0  0
    5.3517    0.2500    0.0000 C   0  0  1  0  0  0  0  0  0  0  0  0
    8.8158   -2.7500    0.0000 C   0  0  2  0  0  0  0  0  0  0  0  0
    8.8158   -1.7500    0.0000 C   0  0  1  0  0  0  0  0  0  0  0  0
    3.7690    0.5864    0.0000 C   0  0  0  0  0  0  0  0  0  0  0  0
    6.2177   -1.2500    0.0000 C   0  0  0  0  0  0  0  0  0  0  0  0
    3.4030    1.9524    0.0000 C   0  0  0  0  0  0  0  0  0  0  0  0
    9.6818   -0.2500    0.0000 C   0  0  0  0  0  0  0  0  0  0  0  0
   10.5478    0.2500    0.0000 C   0  0  0  0  0  0  0  0  0  0  0  0
   10.5478    1.2500    0.0000 C   0  0  0  0  0  0  0  0  0  0  0  0
    9.6818    1.7500    0.0000 C   0  0  0  0  0  0  0  0  0  0  0  0
   11.4138    1.7500    0.0000 C   0  0  0  0  0  0  0  0  0  0  0  0
    9.6818    2.7500    0.0000 C   0  0  0  0  0  0  0  0  0  0  0  0
   11.4138    2.7500    0.0000 C   0  0  0  0  0  0  0  0  0  0  0  0
   10.5478    3.2500    0.0000 C   0  0  0  0  0  0  0  0  0  0  0  0
    7.0837   -1.1300    0.0000 H   0  0  0  0  0  0  0  0  0  0  0  0
    7.0837   -3.3700    0.0000 H   0  0  0  0  0  0  0  0  0  0  0  0
    5.0867    1.8434    0.0000 H   0  0  0  0  0  0  0  0  0  0  0  0
    7.4128   -3.5600    0.0000 H   0  0  0  0  0  0  0  0  0  0  0  0
    5.3192   -0.3692    0.0000 H   0  0  0  0  0  0  0  0  0  0  0  0
    8.8158   -3.3700    0.0000 H   0  0  0  0  0  0  0  0  0  0  0  0
    9.3527   -2.0600    0.0000 H   0  0  0  0  0  0  0  0  0  0  0  0
    3.2674    0.9508    0.0000 H   0  0  0  0  0  0  0  0  0  0  0  0
    3.3541    0.1257    0.0000 H   0  0  0  0  0  0  0  0  0  0  0  0
    5.6071   -1.1423    0.0000 H   0  0  0  0  0  0  0  0  0  0  0  0
    6.0056   -1.8326    0.0000 H   0  0  0  0  0  0  0  0  0  0  0  0
    3.8015    2.4274    0.0000 H   0  0  0  0  0  0  0  0  0  0  0  0
    3.0044    2.4274    0.0000 H   0  0  0  0  0  0  0  0  0  0  0  0
    4.0162    2.8454    0.0000 H   0  0  0  0  0  0  0  0  0  0  0  0
    5.6808   -2.9400    0.0000 H   0  0  0  0  0  0  0  0  0  0  0  0
    6.5799    1.7221    0.0000 H   0  0  0  0  0  0  0  0  0  0  0  0
    7.4128   -4.5600    0.0000 H   0  0  0  0  0  0  0  0  0  0  0  0
   10.2187   -2.9400    0.0000 H   0  0  0  0  0  0  0  0  0  0  0  0
    9.4697    0.3326    0.0000 H   0  0  0  0  0  0  0  0  0  0  0  0
    9.0712   -0.3577    0.0000 H   0  0  0  0  0  0  0  0  0  0  0  0
    2.0000    1.7624    0.0000 H   0  0  0  0  0  0  0  0  0  0  0  0
   10.7599   -0.3326    0.0000 H   0  0  0  0  0  0  0  0  0  0  0  0
   11.1584    0.3577    0.0000 H   0  0  0  0  0  0  0  0  0  0  0  0
    9.1448    1.4400    0.0000 H   0  0  0  0  0  0  0  0  0  0  0  0
   11.9508    1.4400    0.0000 H   0  0  0  0  0  0  0  0  0  0  0  0
    9.1448    3.0600    0.0000 H   0  0  0  0  0  0  0  0  0  0  0  0
   11.9508    3.0600    0.0000 H   0  0  0  0  0  0  0  0  0  0  0  0
   11.0848    4.5600    0.0000 H   0  0  0  0  0  0  0  0  0  0  0  0
  1 13  1  0  0  0  0
  1 19  1  0  0  0  0
  2 17  1  0  0  0  0
  2 20  1  0  0  0  0
 17  3  1  6  0  0  0
  3 21  1  0  0  0  0
 12  4  1  1  0  0  0
  4 44  1  0  0  0  0
 14  5  1  6  0  0  0
  5 45  1  0  0  0  0
 15  6  1  1  0  0  0
  6 46  1  0  0  0  0
 19  7  1  1  0  0  0
  7 23  1  0  0  0  0
 16  8  1  1  0  0  0
  8 47  1  0  0  0  0
 18  9  1  6  0  0  0
  9 48  1  0  0  0  0
 10 22  1  0  0  0  0
 10 51  1  0  0  0  0
 11 30  1  0  0  0  0
 11 58  1  0  0  0  0
 12 15  1  0  0  0  0
 12 20  1  0  0  0  0
 12 22  1  0  0  0  0
 13 14  1  0  0  0  0
 13 21  1  1  0  0  0
 13 31  1  0  0  0  0
 14 16  1  0  0  0  0
 14 32  1  0  0  0  0
 15 17  1  0  0  0  0
 15 33  1  0  0  0  0
 16 18  1  0  0  0  0
 16 34  1  0  0  0  0
 17 35  1  0  0  0  0
 18 19  1  0  0  0  0
 18 36  1  0  0  0  0
 19 37  1  0  0  0  0
 20 38  1  0  0  0  0
 20 39  1  0  0  0  0
 21 40  1  0  0  0  0
 21 41  1  0  0  0  0
 22 42  1  0  0  0  0
 22 43  1  0  0  0  0
 23 24  1  0  0  0  0
 23 49  1  0  0  0  0
 23 50  1  0  0  0  0
 24 25  1  0  0  0  0
 24 52  1  0  0  0  0
 24 53  1  0  0  0  0
 25 26  2  0  0  0  0
 25 27  1  0  0  0  0
 26 28  1  0  0  0  0
 26 54  1  0  0  0  0
 27 29  2  0  0  0  0
 27 55  1  0  0  0  0
 28 30  2  0  0  0  0
 28 56  1  0  0  0  0
 29 30  1  0  0  0  0
 29 57  1  0  0  0  0
M  END
> <PUBCHEM_COMPOUND_CID>
192437

> <PUBCHEM_COMPOUND_CANONICALIZED>
1

> <PUBCHEM_CACTVS_COMPLEXITY>
529

> <PUBCHEM_CACTVS_HBOND_ACCEPTOR>
11

> <PUBCHEM_CACTVS_HBOND_DONOR>
7

> <PUBCHEM_CACTVS_ROTATABLE_BOND>
8

> <PUBCHEM_CACTVS_SUBSKEYS>
AAADceB4PAAAAAAAAAAAAAAAAAAAASAAAAA0QAAAAAAAAAABAAAAGgAACAAADFSwmAMwDoAABgCAAiBCAAACAAAgIAAIiAAGCIgZNiKCERKicAAlwBEPmAfA4KwOIAAAAAAAAABAAAAAAAAAAAAAAAAAAA==

> <PUBCHEM_IUPAC_OPENEYE_NAME>
(2R,3S,4S,5R,6R)-2-[[(2R,3R,4R)-3,4-dihydroxy-4-(hydroxymethyl)tetrahydrofuran-2-yl]oxymethyl]-6-[2-(4-hydroxyphenyl)ethoxy]tetrahydropyran-3,4,5-triol

> <PUBCHEM_IUPAC_CAS_NAME>
(2R,3S,4S,5R,6R)-2-[[(2R,3R,4R)-3,4-dihydroxy-4-(hydroxymethyl)-2-oxolanyl]oxymethyl]-6-[2-(4-hydroxyphenyl)ethoxy]oxane-3,4,5-triol

> <PUBCHEM_IUPAC_NAME_MARKUP>
(2<I>R</I>,3<I>S</I>,4<I>S</I>,5<I>R</I>,6<I>R</I>)-2-[[(2<I>R</I>,3<I>R</I>,4<I>R</I>)-3,4-dihydroxy-4-(hydroxymethyl)oxolan-2-yl]oxymethyl]-6-[2-(4-hydroxyphenyl)ethoxy]oxane-3,4,5-triol

> <PUBCHEM_IUPAC_NAME>
(2R,3S,4S,5R,6R)-2-[[(2R,3R,4R)-3,4-dihydroxy-4-(hydroxymethyl)oxolan-2-yl]oxymethyl]-6-[2-(4-hydroxyphenyl)ethoxy]oxane-3,4,5-triol

> <PUBCHEM_IUPAC_SYSTEMATIC_NAME>
(2R,3S,4S,5R,6R)-2-[[(2R,3R,4R)-4-(hydroxymethyl)-3,4-bis(oxidanyl)oxolan-2-yl]oxymethyl]-6-[2-(4-hydroxyphenyl)ethoxy]oxane-3,4,5-triol

> <PUBCHEM_IUPAC_TRADITIONAL_NAME>
(2R,3S,4S,5R,6R)-2-[[(2R,3R,4R)-3,4-dihydroxy-4-methylol-tetrahydrofuran-2-yl]oxymethyl]-6-[2-(4-hydroxyphenyl)ethoxy]tetrahydropyran-3,4,5-triol

> <PUBCHEM_IUPAC_INCHI>
InChI=1S/C19H28O11/c20-8-19(26)9-29-18(16(19)25)28-7-12-13(22)14(23)15(24)17(30-12)27-6-5-10-1-3-11(21)4-2-10/h1-4,12-18,20-26H,5-9H2/t12-,13-,14+,15-,16+,17-,18-,19-/m1/s1

> <PUBCHEM_IUPAC_INCHIKEY>
IVRQZYXJBVMHCW-OTCFHACESA-N

> <PUBCHEM_XLOGP3_AA>
-2.2

> <PUBCHEM_EXACT_MASS>
432.16316171

> <PUBCHEM_MOLECULAR_FORMULA>
C19H28O11

> <PUBCHEM_MOLECULAR_WEIGHT>
432.4

> <PUBCHEM_OPENEYE_CAN_SMILES>
C1C(C(C(O1)OCC2C(C(C(C(O2)OCCC3=CC=C(C=C3)O)O)O)O)O)(CO)O

> <PUBCHEM_OPENEYE_ISO_SMILES>
C1[C@@]([C@H]([C@@H](O1)OC[C@@H]2[C@H]([C@@H]([C@H]([C@@H](O2)OCCC3=CC=C(C=C3)O)O)O)O)O)(CO)O

> <PUBCHEM_CACTVS_TPSA>
179

> <PUBCHEM_MONOISOTOPIC_WEIGHT>
432.16316171

> <PUBCHEM_TOTAL_CHARGE>
0

> <PUBCHEM_HEAVY_ATOM_COUNT>
30

> <PUBCHEM_ATOM_DEF_STEREO_COUNT>
8

> <PUBCHEM_ATOM_UDEF_STEREO_COUNT>
0

> <PUBCHEM_BOND_DEF_STEREO_COUNT>
0

> <PUBCHEM_BOND_UDEF_STEREO_COUNT>
0

> <PUBCHEM_ISOTOPIC_ATOM_COUNT>
0

> <PUBCHEM_COMPONENT_COUNT>
1

> <PUBCHEM_CACTVS_TAUTO_COUNT>
2

> <PUBCHEM_COORDINATE_TYPE>
1
5
255

> <PUBCHEM_BONDANNOTATIONS>
13  21  5
25  26  8
25  27  8
26  28  8
27  29  8
28  30  8
29  30  8
17  3  6
12  4  5
14  5  6
15  6  5
19  7  5
16  8  5
18  9  6

$$$$
