 
  -OEChem-10192104422D

 52 55  0     0  0  0  0  0  0999 V2000
   10.7262   -0.7329    0.0000 O   0  0  0  0  0  0  0  0  0  0  0  0
   12.4583    1.2671    0.0000 O   0  0  0  0  0  0  0  0  0  0  0  0
    7.1961   -0.7571    0.0000 O   0  0  0  0  0  0  0  0  0  0  0  0
   10.7262    2.2671    0.0000 O   0  0  0  0  0  0  0  0  0  0  0  0
   16.7884   -0.2329    0.0000 O   0  0  0  0  0  0  0  0  0  0  0  0
    6.3243    0.7396    0.0000 O   0  0  0  0  0  0  0  0  0  0  0  0
   15.9224   -1.7329    0.0000 O   0  0  0  0  0  0  0  0  0  0  0  0
    2.0000   -0.7771    0.0000 O   0  5  0  0  0  0  0  0  0  0  0  0
    2.8602    0.7262    0.0000 O   0  0  0  0  0  0  0  0  0  0  0  0
    2.8641   -0.2738    0.0000 N   0  3  0  0  0  0  0  0  0  0  0  0
    9.8602    0.7671    0.0000 C   0  0  0  0  0  0  0  0  0  0  0  0
    9.8602   -0.2329    0.0000 C   0  0  0  0  0  0  0  0  0  0  0  0
   10.7262    1.2671    0.0000 C   0  0  0  0  0  0  0  0  0  0  0  0
    8.9663   -0.7676    0.0000 C   0  0  0  0  0  0  0  0  0  0  0  0
    8.9663    1.3017    0.0000 C   0  0  0  0  0  0  0  0  0  0  0  0
   11.5923    0.7671    0.0000 C   0  0  0  0  0  0  0  0  0  0  0  0
    8.0602   -0.2537    0.0000 C   0  0  0  0  0  0  0  0  0  0  0  0
    8.0602    0.7879    0.0000 C   0  0  0  0  0  0  0  0  0  0  0  0
   11.5923   -0.2329    0.0000 C   0  0  0  0  0  0  0  0  0  0  0  0
   13.3243    0.7671    0.0000 C   0  0  0  0  0  0  0  0  0  0  0  0
   15.0564   -0.2329    0.0000 C   0  0  0  0  0  0  0  0  0  0  0  0
   14.1903    1.2671    0.0000 C   0  0  0  0  0  0  0  0  0  0  0  0
   13.3243   -0.2329    0.0000 C   0  0  0  0  0  0  0  0  0  0  0  0
    5.4641   -0.7638    0.0000 C   0  0  0  0  0  0  0  0  0  0  0  0
   15.0564    0.7671    0.0000 C   0  0  0  0  0  0  0  0  0  0  0  0
   14.1903   -0.7329    0.0000 C   0  0  0  0  0  0  0  0  0  0  0  0
    6.3282   -0.2604    0.0000 C   0  0  0  0  0  0  0  0  0  0  0  0
    4.5961   -0.2671    0.0000 C   0  0  0  0  0  0  0  0  0  0  0  0
    5.4679   -1.7637    0.0000 C   0  0  0  0  0  0  0  0  0  0  0  0
    3.7320   -0.7704    0.0000 C   0  0  0  0  0  0  0  0  0  0  0  0
   15.9224   -0.7329    0.0000 C   0  0  0  0  0  0  0  0  0  0  0  0
    4.6038   -2.2671    0.0000 C   0  0  0  0  0  0  0  0  0  0  0  0
    3.7359   -1.7704    0.0000 C   0  0  0  0  0  0  0  0  0  0  0  0
   17.6544   -0.7329    0.0000 C   0  0  0  0  0  0  0  0  0  0  0  0
   18.5205   -0.2329    0.0000 C   0  0  0  0  0  0  0  0  0  0  0  0
    8.9734   -1.3875    0.0000 H   0  0  0  0  0  0  0  0  0  0  0  0
    8.9734    1.9217    0.0000 H   0  0  0  0  0  0  0  0  0  0  0  0
    7.5245    1.1000    0.0000 H   0  0  0  0  0  0  0  0  0  0  0  0
   12.1292   -0.5429    0.0000 H   0  0  0  0  0  0  0  0  0  0  0  0
   14.1903    1.8871    0.0000 H   0  0  0  0  0  0  0  0  0  0  0  0
   12.7874   -0.5429    0.0000 H   0  0  0  0  0  0  0  0  0  0  0  0
   15.5933    1.0771    0.0000 H   0  0  0  0  0  0  0  0  0  0  0  0
   14.1903   -1.3529    0.0000 H   0  0  0  0  0  0  0  0  0  0  0  0
    4.5937    0.3529    0.0000 H   0  0  0  0  0  0  0  0  0  0  0  0
    6.0061   -2.0717    0.0000 H   0  0  0  0  0  0  0  0  0  0  0  0
    4.6062   -2.8871    0.0000 H   0  0  0  0  0  0  0  0  0  0  0  0
    3.2002   -2.0825    0.0000 H   0  0  0  0  0  0  0  0  0  0  0  0
   17.2559   -1.2079    0.0000 H   0  0  0  0  0  0  0  0  0  0  0  0
   18.0530   -1.2079    0.0000 H   0  0  0  0  0  0  0  0  0  0  0  0
   18.8305   -0.7699    0.0000 H   0  0  0  0  0  0  0  0  0  0  0  0
   19.0574    0.0771    0.0000 H   0  0  0  0  0  0  0  0  0  0  0  0
   18.2105    0.3040    0.0000 H   0  0  0  0  0  0  0  0  0  0  0  0
  1 12  1  0  0  0  0
  1 19  1  0  0  0  0
  2 16  1  0  0  0  0
  2 20  1  0  0  0  0
  3 17  1  0  0  0  0
  3 27  1  0  0  0  0
  4 13  2  0  0  0  0
  5 31  1  0  0  0  0
  5 34  1  0  0  0  0
  6 27  2  0  0  0  0
  7 31  2  0  0  0  0
  8 10  1  0  0  0  0
  9 10  2  0  0  0  0
 10 30  1  0  0  0  0
 11 12  2  0  0  0  0
 11 13  1  0  0  0  0
 11 15  1  0  0  0  0
 12 14  1  0  0  0  0
 13 16  1  0  0  0  0
 14 17  2  0  0  0  0
 14 36  1  0  0  0  0
 15 18  2  0  0  0  0
 15 37  1  0  0  0  0
 16 19  2  0  0  0  0
 17 18  1  0  0  0  0
 18 38  1  0  0  0  0
 19 39  1  0  0  0  0
 20 22  2  0  0  0  0
 20 23  1  0  0  0  0
 21 25  2  0  0  0  0
 21 26  1  0  0  0  0
 21 31  1  0  0  0  0
 22 25  1  0  0  0  0
 22 40  1  0  0  0  0
 23 26  2  0  0  0  0
 23 41  1  0  0  0  0
 24 27  1  0  0  0  0
 24 28  2  0  0  0  0
 24 29  1  0  0  0  0
 25 42  1  0  0  0  0
 26 43  1  0  0  0  0
 28 30  1  0  0  0  0
 28 44  1  0  0  0  0
 29 32  2  0  0  0  0
 29 45  1  0  0  0  0
 30 33  2  0  0  0  0
 32 33  1  0  0  0  0
 32 46  1  0  0  0  0
 33 47  1  0  0  0  0
 34 35  1  0  0  0  0
 34 48  1  0  0  0  0
 34 49  1  0  0  0  0
 35 50  1  0  0  0  0
 35 51  1  0  0  0  0
 35 52  1  0  0  0  0
M  CHG  2   8  -1  10   1
M  END
> <PUBCHEM_COMPOUND_CID>
2019574

> <PUBCHEM_COMPOUND_CANONICALIZED>
1

> <PUBCHEM_CACTVS_COMPLEXITY>
842

> <PUBCHEM_CACTVS_HBOND_ACCEPTOR>
9

> <PUBCHEM_CACTVS_HBOND_DONOR>
0

> <PUBCHEM_CACTVS_ROTATABLE_BOND>
8

> <PUBCHEM_CACTVS_SUBSKEYS>
AAADceB6PAAAAAAAAAAAAAAAAAAAAAAAAAAwYMEAAAAAAACBUAAAHgAEAAAADAyhmAIyzoAQRACJAqTSSwKCCAAkIgAoiAFGbMoMJzaEtZ+CO2Dl4BUI6Yf87KzOIAAASAAIAABAAACQABAAAAAAAAAAAA==

> <PUBCHEM_IUPAC_OPENEYE_NAME>
[3-(4-ethoxycarbonylphenoxy)-4-oxo-chromen-7-yl] 3-nitrobenzoate

> <PUBCHEM_IUPAC_CAS_NAME>
3-nitrobenzoic acid [3-(4-ethoxycarbonylphenoxy)-4-oxo-1-benzopyran-7-yl] ester

> <PUBCHEM_IUPAC_NAME_MARKUP>
[3-(4-ethoxycarbonylphenoxy)-4-oxochromen-7-yl] 3-nitrobenzoate

> <PUBCHEM_IUPAC_NAME>
[3-(4-ethoxycarbonylphenoxy)-4-oxochromen-7-yl] 3-nitrobenzoate

> <PUBCHEM_IUPAC_SYSTEMATIC_NAME>
[3-(4-ethoxycarbonylphenoxy)-4-oxidanylidene-chromen-7-yl] 3-nitrobenzoate

> <PUBCHEM_IUPAC_TRADITIONAL_NAME>
3-nitrobenzoic acid [3-(4-carbethoxyphenoxy)-4-keto-chromen-7-yl] ester

> <PUBCHEM_IUPAC_INCHI>
InChI=1S/C25H17NO9/c1-2-32-24(28)15-6-8-18(9-7-15)34-22-14-33-21-13-19(10-11-20(21)23(22)27)35-25(29)16-4-3-5-17(12-16)26(30)31/h3-14H,2H2,1H3

> <PUBCHEM_IUPAC_INCHIKEY>
IOYCKWOFPOBQQM-UHFFFAOYSA-N

> <PUBCHEM_XLOGP3_AA>
4.7

> <PUBCHEM_EXACT_MASS>
475.09033112

> <PUBCHEM_MOLECULAR_FORMULA>
C25H17NO9

> <PUBCHEM_MOLECULAR_WEIGHT>
475.4

> <PUBCHEM_OPENEYE_CAN_SMILES>
CCOC(=O)C1=CC=C(C=C1)OC2=COC3=C(C2=O)C=CC(=C3)OC(=O)C4=CC(=CC=C4)[N+](=O)[O-]

> <PUBCHEM_OPENEYE_ISO_SMILES>
CCOC(=O)C1=CC=C(C=C1)OC2=COC3=C(C2=O)C=CC(=C3)OC(=O)C4=CC(=CC=C4)[N+](=O)[O-]

> <PUBCHEM_CACTVS_TPSA>
134

> <PUBCHEM_MONOISOTOPIC_WEIGHT>
475.09033112

> <PUBCHEM_TOTAL_CHARGE>
0

> <PUBCHEM_HEAVY_ATOM_COUNT>
35

> <PUBCHEM_ATOM_DEF_STEREO_COUNT>
0

> <PUBCHEM_ATOM_UDEF_STEREO_COUNT>
0

> <PUBCHEM_BOND_DEF_STEREO_COUNT>
0

> <PUBCHEM_BOND_UDEF_STEREO_COUNT>
0

> <PUBCHEM_ISOTOPIC_ATOM_COUNT>
0

> <PUBCHEM_COMPONENT_COUNT>
1

> <PUBCHEM_CACTVS_TAUTO_COUNT>
-1

> <PUBCHEM_COORDINATE_TYPE>
1
5
255

> <PUBCHEM_BONDANNOTATIONS>
1  12  8
1  19  8
11  12  8
11  13  8
11  15  8
12  14  8
13  16  8
14  17  8
15  18  8
16  19  8
17  18  8
20  22  8
20  23  8
21  25  8
21  26  8
22  25  8
23  26  8
24  28  8
24  29  8
28  30  8
29  32  8
30  33  8
32  33  8

$$$$
