 
  -OEChem-10192104132D

 96100  0     1  0  0  0  0  0999 V2000
    8.0622   -0.5000    0.0000 O   0  0  0  0  0  0  0  0  0  0  0  0
    8.0622    2.5000    0.0000 O   0  0  0  0  0  0  0  0  0  0  0  0
    6.3301    1.5000    0.0000 O   0  0  0  0  0  0  0  0  0  0  0  0
    9.7942    1.5000    0.0000 O   0  0  0  0  0  0  0  0  0  0  0  0
    9.7942   -1.5000    0.0000 O   0  0  0  0  0  0  0  0  0  0  0  0
    9.7942    2.5000    0.0000 O   0  0  0  0  0  0  0  0  0  0  0  0
    5.4641   -0.0000    0.0000 O   0  0  0  0  0  0  0  0  0  0  0  0
   10.6603   -0.0000    0.0000 O   0  0  0  0  0  0  0  0  0  0  0  0
   11.5263   -1.5000    0.0000 O   0  0  0  0  0  0  0  0  0  0  0  0
    3.7320   -5.0000    0.0000 O   0  0  0  0  0  0  0  0  0  0  0  0
    2.8660   -3.5000    0.0000 O   0  0  0  0  0  0  0  0  0  0  0  0
    5.4641   -5.0000    0.0000 O   0  0  0  0  0  0  0  0  0  0  0  0
    3.7320   -2.0000    0.0000 O   0  0  0  0  0  0  0  0  0  0  0  0
    8.0622    1.5000    0.0000 C   0  0  2  0  0  0  0  0  0  0  0  0
    7.1962    1.0000    0.0000 C   0  0  2  0  0  0  0  0  0  0  0  0
    8.9282    1.0000    0.0000 C   0  0  1  0  0  0  0  0  0  0  0  0
    7.1962   -0.0000    0.0000 C   0  0  1  0  0  0  0  0  0  0  0  0
    8.9282   -0.0000    0.0000 C   0  0  1  0  0  0  0  0  0  0  0  0
    6.3301   -0.5000    0.0000 C   0  0  0  0  0  0  0  0  0  0  0  0
    9.7942   -0.5000    0.0000 C   0  0  0  0  0  0  0  0  0  0  0  0
    6.3301   -1.5000    0.0000 C   0  0  0  0  0  0  0  0  0  0  0  0
    8.9282    3.0000    0.0000 C   0  0  0  0  0  0  0  0  0  0  0  0
    5.4641    1.0000    0.0000 C   0  0  0  0  0  0  0  0  0  0  0  0
   10.6603    1.0000    0.0000 C   0  0  0  0  0  0  0  0  0  0  0  0
    5.4641   -2.0000    0.0000 C   0  0  0  0  0  0  0  0  0  0  0  0
    5.4641   -3.0000    0.0000 C   0  0  0  0  0  0  0  0  0  0  0  0
    8.9282    4.0000    0.0000 C   0  0  0  0  0  0  0  0  0  0  0  0
    4.5981    1.5000    0.0000 C   0  0  0  0  0  0  0  0  0  0  0  0
   11.5263    1.5000    0.0000 C   0  0  0  0  0  0  0  0  0  0  0  0
   10.6603   -2.0000    0.0000 C   0  0  0  0  0  0  0  0  0  0  0  0
    4.5981   -3.5000    0.0000 C   0  0  0  0  0  0  0  0  0  0  0  0
   10.6603   -3.0000    0.0000 C   0  0  0  0  0  0  0  0  0  0  0  0
    8.0622    4.5000    0.0000 C   0  0  0  0  0  0  0  0  0  0  0  0
    9.7942    4.5000    0.0000 C   0  0  0  0  0  0  0  0  0  0  0  0
    3.7320    1.0000    0.0000 C   0  0  0  0  0  0  0  0  0  0  0  0
    4.5981    2.5000    0.0000 C   0  0  0  0  0  0  0  0  0  0  0  0
   12.3923    1.0000    0.0000 C   0  0  0  0  0  0  0  0  0  0  0  0
   11.5263    2.5000    0.0000 C   0  0  0  0  0  0  0  0  0  0  0  0
    4.5981   -4.5000    0.0000 C   0  0  0  0  0  0  0  0  0  0  0  0
    3.7320   -3.0000    0.0000 C   0  0  0  0  0  0  0  0  0  0  0  0
    8.0622    5.5000    0.0000 C   0  0  0  0  0  0  0  0  0  0  0  0
    9.7942    5.5000    0.0000 C   0  0  0  0  0  0  0  0  0  0  0  0
    2.8660    1.5000    0.0000 C   0  0  0  0  0  0  0  0  0  0  0  0
    3.7320    3.0000    0.0000 C   0  0  0  0  0  0  0  0  0  0  0  0
   13.2583    1.5000    0.0000 C   0  0  0  0  0  0  0  0  0  0  0  0
   12.3923    3.0000    0.0000 C   0  0  0  0  0  0  0  0  0  0  0  0
   11.5263   -3.5000    0.0000 C   0  0  0  0  0  0  0  0  0  0  0  0
    9.7942   -3.5000    0.0000 C   0  0  0  0  0  0  0  0  0  0  0  0
    8.9282    6.0000    0.0000 C   0  0  0  0  0  0  0  0  0  0  0  0
    2.8660    2.5000    0.0000 C   0  0  0  0  0  0  0  0  0  0  0  0
   13.2583    2.5000    0.0000 C   0  0  0  0  0  0  0  0  0  0  0  0
   11.5263   -4.5000    0.0000 C   0  0  0  0  0  0  0  0  0  0  0  0
    9.7942   -4.5000    0.0000 C   0  0  0  0  0  0  0  0  0  0  0  0
   10.6603   -5.0000    0.0000 C   0  0  0  0  0  0  0  0  0  0  0  0
    3.7320   -6.0000    0.0000 C   0  0  0  0  0  0  0  0  0  0  0  0
    2.0000   -3.0000    0.0000 C   0  0  0  0  0  0  0  0  0  0  0  0
    7.5252    1.8100    0.0000 H   0  0  0  0  0  0  0  0  0  0  0  0
    6.6592    0.6900    0.0000 H   0  0  0  0  0  0  0  0  0  0  0  0
    9.4651    0.6900    0.0000 H   0  0  0  0  0  0  0  0  0  0  0  0
    7.1962   -0.6200    0.0000 H   0  0  0  0  0  0  0  0  0  0  0  0
    8.9282   -0.6200    0.0000 H   0  0  0  0  0  0  0  0  0  0  0  0
    6.1181    0.0826    0.0000 H   0  0  0  0  0  0  0  0  0  0  0  0
    5.7196   -0.6077    0.0000 H   0  0  0  0  0  0  0  0  0  0  0  0
   10.4048   -0.6077    0.0000 H   0  0  0  0  0  0  0  0  0  0  0  0
   10.0063    0.0826    0.0000 H   0  0  0  0  0  0  0  0  0  0  0  0
    6.8671   -1.8100    0.0000 H   0  0  0  0  0  0  0  0  0  0  0  0
    4.9272   -1.6900    0.0000 H   0  0  0  0  0  0  0  0  0  0  0  0
    5.6762   -3.5826    0.0000 H   0  0  0  0  0  0  0  0  0  0  0  0
    6.0747   -2.8923    0.0000 H   0  0  0  0  0  0  0  0  0  0  0  0
    4.5981   -2.8800    0.0000 H   0  0  0  0  0  0  0  0  0  0  0  0
    7.5252    4.1900    0.0000 H   0  0  0  0  0  0  0  0  0  0  0  0
   10.3312    4.1900    0.0000 H   0  0  0  0  0  0  0  0  0  0  0  0
    3.7320    0.3800    0.0000 H   0  0  0  0  0  0  0  0  0  0  0  0
    5.1350    2.8100    0.0000 H   0  0  0  0  0  0  0  0  0  0  0  0
   12.3923    0.3800    0.0000 H   0  0  0  0  0  0  0  0  0  0  0  0
   10.9893    2.8100    0.0000 H   0  0  0  0  0  0  0  0  0  0  0  0
    7.5252    5.8100    0.0000 H   0  0  0  0  0  0  0  0  0  0  0  0
   10.3312    5.8100    0.0000 H   0  0  0  0  0  0  0  0  0  0  0  0
    2.3291    1.1900    0.0000 H   0  0  0  0  0  0  0  0  0  0  0  0
    3.7320    3.6200    0.0000 H   0  0  0  0  0  0  0  0  0  0  0  0
   13.7953    1.1900    0.0000 H   0  0  0  0  0  0  0  0  0  0  0  0
   12.3923    3.6200    0.0000 H   0  0  0  0  0  0  0  0  0  0  0  0
   12.0632   -3.1900    0.0000 H   0  0  0  0  0  0  0  0  0  0  0  0
    9.2573   -3.1900    0.0000 H   0  0  0  0  0  0  0  0  0  0  0  0
    8.9282    6.6200    0.0000 H   0  0  0  0  0  0  0  0  0  0  0  0
    2.3291    2.8100    0.0000 H   0  0  0  0  0  0  0  0  0  0  0  0
   13.7953    2.8100    0.0000 H   0  0  0  0  0  0  0  0  0  0  0  0
   12.0632   -4.8100    0.0000 H   0  0  0  0  0  0  0  0  0  0  0  0
    9.2573   -4.8100    0.0000 H   0  0  0  0  0  0  0  0  0  0  0  0
   10.6603   -5.6200    0.0000 H   0  0  0  0  0  0  0  0  0  0  0  0
    3.1120   -6.0000    0.0000 H   0  0  0  0  0  0  0  0  0  0  0  0
    3.7320   -6.6200    0.0000 H   0  0  0  0  0  0  0  0  0  0  0  0
    4.3520   -6.0000    0.0000 H   0  0  0  0  0  0  0  0  0  0  0  0
    2.3100   -2.4631    0.0000 H   0  0  0  0  0  0  0  0  0  0  0  0
    1.4631   -2.6900    0.0000 H   0  0  0  0  0  0  0  0  0  0  0  0
    1.6900   -3.5369    0.0000 H   0  0  0  0  0  0  0  0  0  0  0  0
  1 17  1  0  0  0  0
  1 18  1  0  0  0  0
 14  2  1  1  0  0  0
  2 22  1  0  0  0  0
 15  3  1  6  0  0  0
  3 23  1  0  0  0  0
 16  4  1  6  0  0  0
  4 24  1  0  0  0  0
  5 20  1  0  0  0  0
  5 30  1  0  0  0  0
  6 22  2  0  0  0  0
  7 23  2  0  0  0  0
  8 24  2  0  0  0  0
  9 30  2  0  0  0  0
 10 39  1  0  0  0  0
 10 55  1  0  0  0  0
 11 40  1  0  0  0  0
 11 56  1  0  0  0  0
 12 39  2  0  0  0  0
 13 40  2  0  0  0  0
 14 15  1  0  0  0  0
 14 16  1  0  0  0  0
 14 57  1  0  0  0  0
 15 17  1  0  0  0  0
 15 58  1  0  0  0  0
 16 18  1  0  0  0  0
 16 59  1  0  0  0  0
 17 19  1  6  0  0  0
 17 60  1  0  0  0  0
 18 20  1  1  0  0  0
 18 61  1  0  0  0  0
 19 21  1  0  0  0  0
 19 62  1  0  0  0  0
 19 63  1  0  0  0  0
 20 64  1  0  0  0  0
 20 65  1  0  0  0  0
 21 25  2  0  0  0  0
 21 66  1  0  0  0  0
 22 27  1  0  0  0  0
 23 28  1  0  0  0  0
 24 29  1  0  0  0  0
 25 26  1  0  0  0  0
 25 67  1  0  0  0  0
 26 31  1  0  0  0  0
 26 68  1  0  0  0  0
 26 69  1  0  0  0  0
 27 33  2  0  0  0  0
 27 34  1  0  0  0  0
 28 35  2  0  0  0  0
 28 36  1  0  0  0  0
 29 37  2  0  0  0  0
 29 38  1  0  0  0  0
 30 32  1  0  0  0  0
 31 39  1  0  0  0  0
 31 40  1  0  0  0  0
 31 70  1  0  0  0  0
 32 47  2  0  0  0  0
 32 48  1  0  0  0  0
 33 41  1  0  0  0  0
 33 71  1  0  0  0  0
 34 42  2  0  0  0  0
 34 72  1  0  0  0  0
 35 43  1  0  0  0  0
 35 73  1  0  0  0  0
 36 44  2  0  0  0  0
 36 74  1  0  0  0  0
 37 45  1  0  0  0  0
 37 75  1  0  0  0  0
 38 46  2  0  0  0  0
 38 76  1  0  0  0  0
 41 49  2  0  0  0  0
 41 77  1  0  0  0  0
 42 49  1  0  0  0  0
 42 78  1  0  0  0  0
 43 50  2  0  0  0  0
 43 79  1  0  0  0  0
 44 50  1  0  0  0  0
 44 80  1  0  0  0  0
 45 51  2  0  0  0  0
 45 81  1  0  0  0  0
 46 51  1  0  0  0  0
 46 82  1  0  0  0  0
 47 52  1  0  0  0  0
 47 83  1  0  0  0  0
 48 53  2  0  0  0  0
 48 84  1  0  0  0  0
 49 85  1  0  0  0  0
 50 86  1  0  0  0  0
 51 87  1  0  0  0  0
 52 54  2  0  0  0  0
 52 88  1  0  0  0  0
 53 54  1  0  0  0  0
 53 89  1  0  0  0  0
 54 90  1  0  0  0  0
 55 91  1  0  0  0  0
 55 92  1  0  0  0  0
 55 93  1  0  0  0  0
 56 94  1  0  0  0  0
 56 95  1  0  0  0  0
 56 96  1  0  0  0  0
M  END
> <PUBCHEM_COMPOUND_CID>
102281526

> <PUBCHEM_COMPOUND_CANONICALIZED>
1

> <PUBCHEM_CACTVS_COMPLEXITY>
1320

> <PUBCHEM_CACTVS_HBOND_ACCEPTOR>
13

> <PUBCHEM_CACTVS_HBOND_DONOR>
0

> <PUBCHEM_CACTVS_ROTATABLE_BOND>
21

> <PUBCHEM_CACTVS_SUBSKEYS>
AAADcfB8PAAAAAAAAAAAAAAAAAAAAAAAAAA0YMGCAAAAAAABVAAAGgAAAAAADRSgmAIyCIAABACIAiDSCAACAAAkAAAIiAEACMgJJjaINRiCMQAl4AEKqYfI6KyOAAAAAAAAAAAAAAAAAAAAAAAAAAAAAA==

> <PUBCHEM_IUPAC_OPENEYE_NAME>
dimethyl 2-[(E)-4-[(2R,3S,4R,5R,6R)-3,4,5-tribenzoyloxy-6-(benzoyloxymethyl)tetrahydropyran-2-yl]but-2-enyl]propanedioate

> <PUBCHEM_IUPAC_CAS_NAME>
2-[(E)-4-[(2R,3S,4R,5R,6R)-3,4,5-tribenzoyloxy-6-(benzoyloxymethyl)-2-oxanyl]but-2-enyl]propanedioic acid dimethyl ester

> <PUBCHEM_IUPAC_NAME_MARKUP>
dimethyl 2-[(<I>E</I>)-4-[(2<I>R</I>,3<I>S</I>,4<I>R</I>,5<I>R</I>,6<I>R</I>)-3,4,5-tribenzoyloxy-6-(benzoyloxymethyl)oxan-2-yl]but-2-enyl]propanedioate

> <PUBCHEM_IUPAC_NAME>
dimethyl 2-[(E)-4-[(2R,3S,4R,5R,6R)-3,4,5-tribenzoyloxy-6-(benzoyloxymethyl)oxan-2-yl]but-2-enyl]propanedioate

> <PUBCHEM_IUPAC_SYSTEMATIC_NAME>
dimethyl 2-[(E)-4-[(2R,3S,4R,5R,6R)-3,4,5-tris(phenylcarbonyloxy)-6-(phenylcarbonyloxymethyl)oxan-2-yl]but-2-enyl]propanedioate

> <PUBCHEM_IUPAC_TRADITIONAL_NAME>
2-[(E)-4-[(2R,3S,4R,5R,6R)-3,4,5-tribenzoyloxy-6-(benzoyloxymethyl)tetrahydropyran-2-yl]but-2-enyl]malonic acid dimethyl ester

> <PUBCHEM_IUPAC_INCHI>
InChI=1S/C43H40O13/c1-50-42(48)32(43(49)51-2)25-15-16-26-33-35(54-39(45)29-19-9-4-10-20-29)37(56-41(47)31-23-13-6-14-24-31)36(55-40(46)30-21-11-5-12-22-30)34(53-33)27-52-38(44)28-17-7-3-8-18-28/h3-24,32-37H,25-27H2,1-2H3/b16-15+/t33-,34-,35+,36-,37-/m1/s1

> <PUBCHEM_IUPAC_INCHIKEY>
KQDLPRAUBRIVJU-RMDJFLMMSA-N

> <PUBCHEM_XLOGP3_AA>
7.6

> <PUBCHEM_EXACT_MASS>
764.24689133

> <PUBCHEM_MOLECULAR_FORMULA>
C43H40O13

> <PUBCHEM_MOLECULAR_WEIGHT>
764.8

> <PUBCHEM_OPENEYE_CAN_SMILES>
COC(=O)C(CC=CCC1C(C(C(C(O1)COC(=O)C2=CC=CC=C2)OC(=O)C3=CC=CC=C3)OC(=O)C4=CC=CC=C4)OC(=O)C5=CC=CC=C5)C(=O)OC

> <PUBCHEM_OPENEYE_ISO_SMILES>
COC(=O)C(C/C=C/C[C@@H]1[C@@H]([C@H]([C@@H]([C@H](O1)COC(=O)C2=CC=CC=C2)OC(=O)C3=CC=CC=C3)OC(=O)C4=CC=CC=C4)OC(=O)C5=CC=CC=C5)C(=O)OC

> <PUBCHEM_CACTVS_TPSA>
167

> <PUBCHEM_MONOISOTOPIC_WEIGHT>
764.24689133

> <PUBCHEM_TOTAL_CHARGE>
0

> <PUBCHEM_HEAVY_ATOM_COUNT>
56

> <PUBCHEM_ATOM_DEF_STEREO_COUNT>
5

> <PUBCHEM_ATOM_UDEF_STEREO_COUNT>
0

> <PUBCHEM_BOND_DEF_STEREO_COUNT>
1

> <PUBCHEM_BOND_UDEF_STEREO_COUNT>
0

> <PUBCHEM_ISOTOPIC_ATOM_COUNT>
0

> <PUBCHEM_COMPONENT_COUNT>
1

> <PUBCHEM_CACTVS_TAUTO_COUNT>
-1

> <PUBCHEM_COORDINATE_TYPE>
1
5
255

> <PUBCHEM_BONDANNOTATIONS>
17  19  6
18  20  5
14  2  5
27  33  8
27  34  8
28  35  8
28  36  8
29  37  8
29  38  8
15  3  6
32  47  8
32  48  8
33  41  8
34  42  8
35  43  8
36  44  8
37  45  8
38  46  8
16  4  6
41  49  8
42  49  8
43  50  8
44  50  8
45  51  8
46  51  8
47  52  8
48  53  8
52  54  8
53  54  8

$$$$
