 
  -OEChem-10192104262D

106108  0     1  0  0  0  0  0999 V2000
    8.7741    0.6545    0.0000 O   0  0  0  0  0  0  0  0  0  0  0  0
    3.3100    6.3865    0.0000 O   0  0  0  0  0  0  0  0  0  0  0  0
   10.5061   -1.3455    0.0000 O   0  0  0  0  0  0  0  0  0  0  0  0
    5.3100    4.6545    0.0000 O   0  0  0  0  0  0  0  0  0  0  0  0
    7.0420    0.6545    0.0000 O   0  0  0  0  0  0  0  0  0  0  0  0
    8.7741   -2.3455    0.0000 O   0  0  0  0  0  0  0  0  0  0  0  0
    6.3100    6.3865    0.0000 O   0  0  0  0  0  0  0  0  0  0  0  0
    7.0420   -1.3455    0.0000 O   0  0  0  0  0  0  0  0  0  0  0  0
    7.0420   -5.3455    0.0000 O   0  0  0  0  0  0  0  0  0  0  0  0
    5.3100    8.1186    0.0000 O   0  0  0  0  0  0  0  0  0  0  0  0
    8.7741   -5.3455    0.0000 O   0  0  0  0  0  0  0  0  0  0  0  0
    6.1760    3.1545    0.0000 O   0  0  0  0  0  0  0  0  0  0  0  0
    9.6401   -2.8455    0.0000 O   0  0  0  0  0  0  0  0  0  0  0  0
   10.5061    1.6545    0.0000 O   0  0  0  0  0  0  0  0  0  0  0  0
    2.3100    4.6545    0.0000 O   0  0  0  0  0  0  0  0  0  0  0  0
    8.7741   -7.3455    0.0000 O   0  0  0  0  0  0  0  0  0  0  0  0
    7.0420   -8.3455    0.0000 O   0  0  0  0  0  0  0  0  0  0  0  0
    4.4440   -5.8455    0.0000 O   0  0  0  0  0  0  0  0  0  0  0  0
    5.3100    0.6545    0.0000 O   0  0  0  0  0  0  0  0  0  0  0  0
   10.5061   -5.3455    0.0000 O   0  0  0  0  0  0  0  0  0  0  0  0
    7.9081    3.1545    0.0000 O   0  0  0  0  0  0  0  0  0  0  0  0
    4.4440    2.1545    0.0000 O   0  0  0  0  0  0  0  0  0  0  0  0
   12.2382   -2.3455    0.0000 O   0  0  0  0  0  0  0  0  0  0  0  0
    9.6401   -0.8455    0.0000 C   0  0  3  0  0  0  0  0  0  0  0  0
    4.8100    5.5205    0.0000 C   0  0  3  0  0  0  0  0  0  0  0  0
    8.7741   -1.3455    0.0000 C   0  0  3  0  0  0  0  0  0  0  0  0
    5.3100    6.3865    0.0000 C   0  0  3  0  0  0  0  0  0  0  0  0
    9.6401    0.1545    0.0000 C   0  0  3  0  0  0  0  0  0  0  0  0
    7.9081   -0.8455    0.0000 C   0  0  3  0  0  0  0  0  0  0  0  0
    4.8100    7.2526    0.0000 C   0  0  3  0  0  0  0  0  0  0  0  0
    3.8100    5.5206    0.0000 C   0  0  3  0  0  0  0  0  0  0  0  0
    3.8100    7.2526    0.0000 C   0  0  3  0  0  0  0  0  0  0  0  0
    7.9081    0.1545    0.0000 C   0  0  3  0  0  0  0  0  0  0  0  0
   10.5061    0.6545    0.0000 C   0  0  0  0  0  0  0  0  0  0  0  0
    3.3100    4.6545    0.0000 C   0  0  0  0  0  0  0  0  0  0  0  0
    7.9081   -6.8455    0.0000 C   0  0  3  0  0  0  0  0  0  0  0  0
    7.0420   -7.3455    0.0000 C   0  0  3  0  0  0  0  0  0  0  0  0
    7.9081   -5.8455    0.0000 C   0  0  3  0  0  0  0  0  0  0  0  0
    6.1760   -6.8455    0.0000 C   0  0  0  0  0  0  0  0  0  0  0  0
    6.1760   -5.8455    0.0000 C   0  0  3  0  0  0  0  0  0  0  0  0
    3.3100    8.1186    0.0000 C   0  0  0  0  0  0  0  0  0  0  0  0
    7.0420    1.6545    0.0000 C   0  0  3  0  0  0  0  0  0  0  0  0
    6.1760    2.1545    0.0000 C   0  0  3  0  0  0  0  0  0  0  0  0
    5.3100    3.6545    0.0000 C   0  0  3  0  0  0  0  0  0  0  0  0
   10.5061   -2.3455    0.0000 C   0  0  3  0  0  0  0  0  0  0  0  0
    8.7741   -4.3455    0.0000 C   0  0  3  0  0  0  0  0  0  0  0  0
    9.6401   -3.8455    0.0000 C   0  0  3  0  0  0  0  0  0  0  0  0
    5.3100   -5.3455    0.0000 C   0  0  0  0  0  0  0  0  0  0  0  0
    5.3100    1.6545    0.0000 C   0  0  0  0  0  0  0  0  0  0  0  0
   10.5061   -4.3455    0.0000 C   0  0  0  0  0  0  0  0  0  0  0  0
    7.9081   -3.8455    0.0000 C   0  0  0  0  0  0  0  0  0  0  0  0
    7.9081    2.1545    0.0000 C   0  0  0  0  0  0  0  0  0  0  0  0
    4.4440    3.1545    0.0000 C   0  0  0  0  0  0  0  0  0  0  0  0
   11.3722   -2.8455    0.0000 C   0  0  0  0  0  0  0  0  0  0  0  0
    9.6401   -1.4655    0.0000 H   0  0  0  0  0  0  0  0  0  0  0  0
    4.5000    4.9836    0.0000 H   0  0  0  0  0  0  0  0  0  0  0  0
    8.2372   -1.6555    0.0000 H   0  0  0  0  0  0  0  0  0  0  0  0
    5.6200    6.9235    0.0000 H   0  0  0  0  0  0  0  0  0  0  0  0
    9.6401    0.7745    0.0000 H   0  0  0  0  0  0  0  0  0  0  0  0
    7.3711   -0.5355    0.0000 H   0  0  0  0  0  0  0  0  0  0  0  0
    4.5000    7.7895    0.0000 H   0  0  0  0  0  0  0  0  0  0  0  0
    3.1900    5.5206    0.0000 H   0  0  0  0  0  0  0  0  0  0  0  0
    3.1900    7.2526    0.0000 H   0  0  0  0  0  0  0  0  0  0  0  0
    7.9081    0.7745    0.0000 H   0  0  0  0  0  0  0  0  0  0  0  0
   10.7182    0.0719    0.0000 H   0  0  0  0  0  0  0  0  0  0  0  0
   11.1167    0.7621    0.0000 H   0  0  0  0  0  0  0  0  0  0  0  0
    3.2023    4.0439    0.0000 H   0  0  0  0  0  0  0  0  0  0  0  0
    3.8926    4.4425    0.0000 H   0  0  0  0  0  0  0  0  0  0  0  0
    7.9081   -7.4655    0.0000 H   0  0  0  0  0  0  0  0  0  0  0  0
    6.5051   -7.6555    0.0000 H   0  0  0  0  0  0  0  0  0  0  0  0
    7.9081   -5.2255    0.0000 H   0  0  0  0  0  0  0  0  0  0  0  0
    5.5654   -6.7379    0.0000 H   0  0  0  0  0  0  0  0  0  0  0  0
    5.9640   -7.4281    0.0000 H   0  0  0  0  0  0  0  0  0  0  0  0
    6.1760   -5.2255    0.0000 H   0  0  0  0  0  0  0  0  0  0  0  0
    3.8469    8.4286    0.0000 H   0  0  0  0  0  0  0  0  0  0  0  0
    3.0000    8.6555    0.0000 H   0  0  0  0  0  0  0  0  0  0  0  0
    2.7730    7.8086    0.0000 H   0  0  0  0  0  0  0  0  0  0  0  0
    7.5790    1.3445    0.0000 H   0  0  0  0  0  0  0  0  0  0  0  0
    5.6391    2.4645    0.0000 H   0  0  0  0  0  0  0  0  0  0  0  0
    4.7731    3.9645    0.0000 H   0  0  0  0  0  0  0  0  0  0  0  0
   11.0431   -2.0355    0.0000 H   0  0  0  0  0  0  0  0  0  0  0  0
    9.3110   -4.6555    0.0000 H   0  0  0  0  0  0  0  0  0  0  0  0
    9.1032   -3.5355    0.0000 H   0  0  0  0  0  0  0  0  0  0  0  0
    8.2372   -2.6555    0.0000 H   0  0  0  0  0  0  0  0  0  0  0  0
    6.6200    6.9235    0.0000 H   0  0  0  0  0  0  0  0  0  0  0  0
    6.5051   -1.0355    0.0000 H   0  0  0  0  0  0  0  0  0  0  0  0
    5.0000    8.6555    0.0000 H   0  0  0  0  0  0  0  0  0  0  0  0
    5.7085   -4.8706    0.0000 H   0  0  0  0  0  0  0  0  0  0  0  0
    4.9115   -4.8706    0.0000 H   0  0  0  0  0  0  0  0  0  0  0  0
    5.0979    2.2371    0.0000 H   0  0  0  0  0  0  0  0  0  0  0  0
    4.6994    1.5468    0.0000 H   0  0  0  0  0  0  0  0  0  0  0  0
   11.1167   -4.4532    0.0000 H   0  0  0  0  0  0  0  0  0  0  0  0
   10.7182   -3.7629    0.0000 H   0  0  0  0  0  0  0  0  0  0  0  0
    8.2181   -3.3086    0.0000 H   0  0  0  0  0  0  0  0  0  0  0  0
    7.3711   -3.5355    0.0000 H   0  0  0  0  0  0  0  0  0  0  0  0
    7.5981   -4.3825    0.0000 H   0  0  0  0  0  0  0  0  0  0  0  0
    8.4450    1.8445    0.0000 H   0  0  0  0  0  0  0  0  0  0  0  0
   11.0431    1.9645    0.0000 H   0  0  0  0  0  0  0  0  0  0  0  0
    2.0000    5.1915    0.0000 H   0  0  0  0  0  0  0  0  0  0  0  0
    8.7741   -7.9655    0.0000 H   0  0  0  0  0  0  0  0  0  0  0  0
    6.5051   -8.6555    0.0000 H   0  0  0  0  0  0  0  0  0  0  0  0
    3.9070    3.4645    0.0000 H   0  0  0  0  0  0  0  0  0  0  0  0
   11.3722   -3.4655    0.0000 H   0  0  0  0  0  0  0  0  0  0  0  0
    3.9070   -5.5355    0.0000 H   0  0  0  0  0  0  0  0  0  0  0  0
    4.7731    0.3445    0.0000 H   0  0  0  0  0  0  0  0  0  0  0  0
   11.0431   -5.6555    0.0000 H   0  0  0  0  0  0  0  0  0  0  0  0
  1 28  1  0  0  0  0
  1 33  1  0  0  0  0
  2 31  1  0  0  0  0
  2 32  1  0  0  0  0
  3 24  1  0  0  0  0
  3 45  1  0  0  0  0
  4 25  1  0  0  0  0
  4 44  1  0  0  0  0
  5 33  1  0  0  0  0
  5 42  1  0  0  0  0
  6 26  1  0  0  0  0
  6 84  1  0  0  0  0
  7 27  1  0  0  0  0
  7 85  1  0  0  0  0
  8 29  1  0  0  0  0
  8 86  1  0  0  0  0
  9 38  1  0  0  0  0
  9 40  1  0  0  0  0
 10 30  1  0  0  0  0
 10 87  1  0  0  0  0
 11 38  1  0  0  0  0
 11 46  1  0  0  0  0
 12 43  1  0  0  0  0
 12 44  1  0  0  0  0
 13 45  1  0  0  0  0
 13 47  1  0  0  0  0
 14 34  1  0  0  0  0
 14 98  1  0  0  0  0
 15 35  1  0  0  0  0
 15 99  1  0  0  0  0
 16 36  1  0  0  0  0
 16100  1  0  0  0  0
 17 37  1  0  0  0  0
 17101  1  0  0  0  0
 18 48  1  0  0  0  0
 18104  1  0  0  0  0
 19 49  1  0  0  0  0
 19105  1  0  0  0  0
 20 50  1  0  0  0  0
 20106  1  0  0  0  0
 21 52  2  0  0  0  0
 22 53  2  0  0  0  0
 23 54  2  0  0  0  0
 24 26  1  0  0  0  0
 24 28  1  0  0  0  0
 24 55  1  0  0  0  0
 25 27  1  0  0  0  0
 25 31  1  0  0  0  0
 25 56  1  0  0  0  0
 26 29  1  0  0  0  0
 26 57  1  0  0  0  0
 27 30  1  0  0  0  0
 27 58  1  0  0  0  0
 28 34  1  0  0  0  0
 28 59  1  0  0  0  0
 29 33  1  0  0  0  0
 29 60  1  0  0  0  0
 30 32  1  0  0  0  0
 30 61  1  0  0  0  0
 31 35  1  0  0  0  0
 31 62  1  0  0  0  0
 32 41  1  0  0  0  0
 32 63  1  0  0  0  0
 33 64  1  0  0  0  0
 34 65  1  0  0  0  0
 34 66  1  0  0  0  0
 35 67  1  0  0  0  0
 35 68  1  0  0  0  0
 36 37  1  0  0  0  0
 36 38  1  0  0  0  0
 36 69  1  0  0  0  0
 37 39  1  0  0  0  0
 37 70  1  0  0  0  0
 38 71  1  0  0  0  0
 39 40  1  0  0  0  0
 39 72  1  0  0  0  0
 39 73  1  0  0  0  0
 40 48  1  0  0  0  0
 40 74  1  0  0  0  0
 41 75  1  0  0  0  0
 41 76  1  0  0  0  0
 41 77  1  0  0  0  0
 42 43  1  0  0  0  0
 42 52  1  0  0  0  0
 42 78  1  0  0  0  0
 43 49  1  0  0  0  0
 43 79  1  0  0  0  0
 44 53  1  0  0  0  0
 44 80  1  0  0  0  0
 45 54  1  0  0  0  0
 45 81  1  0  0  0  0
 46 47  1  0  0  0  0
 46 51  1  0  0  0  0
 46 82  1  0  0  0  0
 47 50  1  0  0  0  0
 47 83  1  0  0  0  0
 48 88  1  0  0  0  0
 48 89  1  0  0  0  0
 49 90  1  0  0  0  0
 49 91  1  0  0  0  0
 50 92  1  0  0  0  0
 50 93  1  0  0  0  0
 51 94  1  0  0  0  0
 51 95  1  0  0  0  0
 51 96  1  0  0  0  0
 52 97  1  0  0  0  0
 53102  1  0  0  0  0
 54103  1  0  0  0  0
M  END
> <PUBCHEM_COMPOUND_CID>
135208601

> <PUBCHEM_COMPOUND_CANONICALIZED>
1

> <PUBCHEM_CACTVS_COMPLEXITY>
1120

> <PUBCHEM_CACTVS_HBOND_ACCEPTOR>
23

> <PUBCHEM_CACTVS_HBOND_DONOR>
11

> <PUBCHEM_CACTVS_ROTATABLE_BOND>
22

> <PUBCHEM_CACTVS_SUBSKEYS>
AAADcfB4PgAAAAAAAAAAAAAAAAAAAAAAAAAkSJAAAAAAAAAAAAAAGgAACAAACBSwgAMCCAAABgAIAAgQgAIAAAAAAAAAAAFAAAAREBYAAAQiQAAFIAAHAAHC4CwAAAAAAAAAAAAAAAAAAAAAAAAAAAAAAA==

> <PUBCHEM_IUPAC_OPENEYE_NAME>
3-[1-[4,5-dihydroxy-2-(hydroxymethyl)-6-methyl-tetrahydropyran-3-yl]oxy-2-oxo-ethoxy]-2-[5-[1-[2-[3,4-dihydroxy-6-(hydroxymethyl)tetrahydropyran-2-yl]oxy-1-(hydroxymethyl)propoxy]-2-oxo-ethoxy]-3,4-dihydroxy-6-(hydroxymethyl)tetrahydropyran-2-yl]oxy-4-hydroxy-butanal

> <PUBCHEM_IUPAC_CAS_NAME>
3-[1-[[4,5-dihydroxy-2-(hydroxymethyl)-6-methyl-3-oxanyl]oxy]-2-oxoethoxy]-2-[[5-[1-[3-[[3,4-dihydroxy-6-(hydroxymethyl)-2-oxanyl]oxy]-1-hydroxybutan-2-yl]oxy-2-oxoethoxy]-3,4-dihydroxy-6-(hydroxymethyl)-2-oxanyl]oxy]-4-hydroxybutanal

> <PUBCHEM_IUPAC_NAME_MARKUP>
3-[1-[4,5-dihydroxy-2-(hydroxymethyl)-6-methyloxan-3-yl]oxy-2-oxoethoxy]-2-[5-[1-[3-[3,4-dihydroxy-6-(hydroxymethyl)oxan-2-yl]oxy-1-hydroxybutan-2-yl]oxy-2-oxoethoxy]-3,4-dihydroxy-6-(hydroxymethyl)oxan-2-yl]oxy-4-hydroxybutanal

> <PUBCHEM_IUPAC_NAME>
3-[1-[4,5-dihydroxy-2-(hydroxymethyl)-6-methyloxan-3-yl]oxy-2-oxoethoxy]-2-[5-[1-[3-[3,4-dihydroxy-6-(hydroxymethyl)oxan-2-yl]oxy-1-hydroxybutan-2-yl]oxy-2-oxoethoxy]-3,4-dihydroxy-6-(hydroxymethyl)oxan-2-yl]oxy-4-hydroxybutanal

> <PUBCHEM_IUPAC_SYSTEMATIC_NAME>
2-[6-(hydroxymethyl)-5-[1-[3-[6-(hydroxymethyl)-3,4-bis(oxidanyl)oxan-2-yl]oxy-1-oxidanyl-butan-2-yl]oxy-2-oxidanylidene-ethoxy]-3,4-bis(oxidanyl)oxan-2-yl]oxy-3-[1-[2-(hydroxymethyl)-6-methyl-4,5-bis(oxidanyl)oxan-3-yl]oxy-2-oxidanylidene-ethoxy]-4-oxidanyl-butanal

> <PUBCHEM_IUPAC_TRADITIONAL_NAME>
3-[1-(4,5-dihydroxy-6-methyl-2-methylol-tetrahydropyran-3-yl)oxy-2-keto-ethoxy]-2-[5-[1-[2-(3,4-dihydroxy-6-methylol-tetrahydropyran-2-yl)oxy-1-methylol-propoxy]-2-keto-ethoxy]-3,4-dihydroxy-6-methylol-tetrahydropyran-2-yl]oxy-4-hydroxy-butyraldehyde

> <PUBCHEM_IUPAC_INCHI>
InChI=1S/C31H52O23/c1-12(47-30-24(42)15(40)3-14(4-32)48-30)16(5-33)49-21(10-38)53-29-20(9-37)52-31(27(45)26(29)44)51-18(7-35)17(6-34)50-22(11-39)54-28-19(8-36)46-13(2)23(41)25(28)43/h7,10-34,36-37,40-45H,3-6,8-9H2,1-2H3

> <PUBCHEM_IUPAC_INCHIKEY>
LHVJGNOSOPKVCL-UHFFFAOYSA-N

> <PUBCHEM_XLOGP3_AA>
-8

> <PUBCHEM_EXACT_MASS>
792.28993790

> <PUBCHEM_MOLECULAR_FORMULA>
C31H52O23

> <PUBCHEM_MOLECULAR_WEIGHT>
792.7

> <PUBCHEM_OPENEYE_CAN_SMILES>
CC1C(C(C(C(O1)CO)OC(C=O)OC(CO)C(C=O)OC2C(C(C(C(O2)CO)OC(C=O)OC(CO)C(C)OC3C(C(CC(O3)CO)O)O)O)O)O)O

> <PUBCHEM_OPENEYE_ISO_SMILES>
CC1C(C(C(C(O1)CO)OC(C=O)OC(CO)C(C=O)OC2C(C(C(C(O2)CO)OC(C=O)OC(CO)C(C)OC3C(C(CC(O3)CO)O)O)O)O)O)O

> <PUBCHEM_CACTVS_TPSA>
357

> <PUBCHEM_MONOISOTOPIC_WEIGHT>
792.28993790

> <PUBCHEM_TOTAL_CHARGE>
0

> <PUBCHEM_HEAVY_ATOM_COUNT>
54

> <PUBCHEM_ATOM_DEF_STEREO_COUNT>
0

> <PUBCHEM_ATOM_UDEF_STEREO_COUNT>
20

> <PUBCHEM_BOND_DEF_STEREO_COUNT>
0

> <PUBCHEM_BOND_UDEF_STEREO_COUNT>
0

> <PUBCHEM_ISOTOPIC_ATOM_COUNT>
0

> <PUBCHEM_COMPONENT_COUNT>
1

> <PUBCHEM_CACTVS_TAUTO_COUNT>
-1

> <PUBCHEM_COORDINATE_TYPE>
1
5
255

> <PUBCHEM_BONDANNOTATIONS>
30  10  3
38  11  3
36  16  3
37  17  3
28  34  3
24  3  3
31  35  3
32  41  3
25  4  3
40  48  3
42  52  3
43  49  3
44  53  3
45  54  3
46  51  3
47  50  3
33  5  3
26  6  3
27  7  3
29  8  3

$$$$
