 
  -OEChem-10192103272D

 98 99  0     1  0  0  0  0  0999 V2000
    5.5981    0.7220    0.0000 S   0  0  0  0  0  0  0  0  0  0  0  0
    6.4641    1.2220    0.0000 S   0  0  0  0  0  0  0  0  0  0  0  0
    7.3301   -3.2780    0.0000 O   0  0  0  0  0  0  0  0  0  0  0  0
   10.7942    3.7220    0.0000 O   0  0  0  0  0  0  0  0  0  0  0  0
    5.5981   -5.2780    0.0000 O   0  0  0  0  0  0  0  0  0  0  0  0
   11.6603    1.2220    0.0000 O   0  0  0  0  0  0  0  0  0  0  0  0
    7.3301   -6.2780    0.0000 O   0  0  0  0  0  0  0  0  0  0  0  0
   13.3923    2.2220    0.0000 O   0  0  0  0  0  0  0  0  0  0  0  0
    9.0622   -5.2780    0.0000 O   0  0  0  0  0  0  0  0  0  0  0  0
   13.3923    4.2220    0.0000 O   0  0  0  0  0  0  0  0  0  0  0  0
    9.0622   -3.2780    0.0000 O   0  0  0  0  0  0  0  0  0  0  0  0
   11.6603    5.2220    0.0000 O   0  0  0  0  0  0  0  0  0  0  0  0
    5.5981   -2.2780    0.0000 O   0  0  0  0  0  0  0  0  0  0  0  0
    9.0622    2.7220    0.0000 O   0  0  0  0  0  0  0  0  0  0  0  0
    3.8660   -2.2780    0.0000 O   0  0  0  0  0  0  0  0  0  0  0  0
    8.1962    1.2220    0.0000 O   0  0  0  0  0  0  0  0  0  0  0  0
    3.0000    1.2220    0.0000 O   0  0  0  0  0  0  0  0  0  0  0  0
    8.1962    5.2220    0.0000 O   0  0  0  0  0  0  0  0  0  0  0  0
    4.7320    1.2220    0.0000 O   0  0  0  0  0  0  0  0  0  0  0  0
    9.0622    3.7220    0.0000 O   0  0  0  0  0  0  0  0  0  0  0  0
    3.8660   -0.2780    0.0000 N   0  0  0  0  0  0  0  0  0  0  0  0
    7.3301    3.7220    0.0000 N   0  0  0  0  0  0  0  0  0  0  0  0
    6.4641   -4.7780    0.0000 C   0  0  3  0  0  0  0  0  0  0  0  0
   11.6603    2.2220    0.0000 C   0  0  3  0  0  0  0  0  0  0  0  0
    7.3301   -5.2780    0.0000 C   0  0  3  0  0  0  0  0  0  0  0  0
   12.5263    2.7220    0.0000 C   0  0  3  0  0  0  0  0  0  0  0  0
    6.4641   -3.7780    0.0000 C   0  0  3  0  0  0  0  0  0  0  0  0
   10.7942    2.7220    0.0000 C   0  0  3  0  0  0  0  0  0  0  0  0
    8.1962   -4.7780    0.0000 C   0  0  3  0  0  0  0  0  0  0  0  0
   12.5263    3.7220    0.0000 C   0  0  3  0  0  0  0  0  0  0  0  0
    8.1962   -3.7780    0.0000 C   0  0  3  0  0  0  0  0  0  0  0  0
   11.6603    4.2220    0.0000 C   0  0  3  0  0  0  0  0  0  0  0  0
    5.5981   -3.2780    0.0000 C   0  0  0  0  0  0  0  0  0  0  0  0
    9.9282    2.2220    0.0000 C   0  0  0  0  0  0  0  0  0  0  0  0
    4.7320   -1.7780    0.0000 C   0  0  0  0  0  0  0  0  0  0  0  0
    8.1962    2.2220    0.0000 C   0  0  0  0  0  0  0  0  0  0  0  0
    4.7320   -0.7780    0.0000 C   0  0  3  0  0  0  0  0  0  0  0  0
    7.3301    2.7220    0.0000 C   0  0  3  0  0  0  0  0  0  0  0  0
    5.5981   -0.2780    0.0000 C   0  0  0  0  0  0  0  0  0  0  0  0
    6.4641    2.2220    0.0000 C   0  0  0  0  0  0  0  0  0  0  0  0
    3.8660    0.7220    0.0000 C   0  0  0  0  0  0  0  0  0  0  0  0
    8.1962    4.2220    0.0000 C   0  0  0  0  0  0  0  0  0  0  0  0
    3.0000    2.2220    0.0000 C   0  0  0  0  0  0  0  0  0  0  0  0
    9.0622    5.7220    0.0000 C   0  0  0  0  0  0  0  0  0  0  0  0
    3.0000    3.2220    0.0000 C   0  0  0  0  0  0  0  0  0  0  0  0
    2.0000    2.2220    0.0000 C   0  0  0  0  0  0  0  0  0  0  0  0
    4.0000    2.2220    0.0000 C   0  0  0  0  0  0  0  0  0  0  0  0
    8.5622    6.5880    0.0000 C   0  0  0  0  0  0  0  0  0  0  0  0
    9.9282    6.2220    0.0000 C   0  0  0  0  0  0  0  0  0  0  0  0
    9.5622    4.8560    0.0000 C   0  0  0  0  0  0  0  0  0  0  0  0
    5.9272   -4.4680    0.0000 H   0  0  0  0  0  0  0  0  0  0  0  0
   12.1972    1.9120    0.0000 H   0  0  0  0  0  0  0  0  0  0  0  0
    6.7932   -5.5880    0.0000 H   0  0  0  0  0  0  0  0  0  0  0  0
   12.5263    2.1020    0.0000 H   0  0  0  0  0  0  0  0  0  0  0  0
    6.4641   -3.1580    0.0000 H   0  0  0  0  0  0  0  0  0  0  0  0
   10.2573    3.0320    0.0000 H   0  0  0  0  0  0  0  0  0  0  0  0
    8.1962   -5.3980    0.0000 H   0  0  0  0  0  0  0  0  0  0  0  0
   13.0632    3.4120    0.0000 H   0  0  0  0  0  0  0  0  0  0  0  0
    8.7331   -4.0880    0.0000 H   0  0  0  0  0  0  0  0  0  0  0  0
   12.1972    4.5320    0.0000 H   0  0  0  0  0  0  0  0  0  0  0  0
    4.9875   -3.1704    0.0000 H   0  0  0  0  0  0  0  0  0  0  0  0
    5.3860   -3.8606    0.0000 H   0  0  0  0  0  0  0  0  0  0  0  0
    9.5297    1.7470    0.0000 H   0  0  0  0  0  0  0  0  0  0  0  0
   10.3267    1.7470    0.0000 H   0  0  0  0  0  0  0  0  0  0  0  0
    5.0611   -4.9680    0.0000 H   0  0  0  0  0  0  0  0  0  0  0  0
   12.1972    0.9120    0.0000 H   0  0  0  0  0  0  0  0  0  0  0  0
    7.8671   -6.5880    0.0000 H   0  0  0  0  0  0  0  0  0  0  0  0
   13.9292    2.5320    0.0000 H   0  0  0  0  0  0  0  0  0  0  0  0
    9.5991   -4.9680    0.0000 H   0  0  0  0  0  0  0  0  0  0  0  0
   13.3923    4.8420    0.0000 H   0  0  0  0  0  0  0  0  0  0  0  0
    9.0622   -2.6580    0.0000 H   0  0  0  0  0  0  0  0  0  0  0  0
   12.1972    5.5320    0.0000 H   0  0  0  0  0  0  0  0  0  0  0  0
    4.7320   -0.1580    0.0000 H   0  0  0  0  0  0  0  0  0  0  0  0
    7.8671    3.0320    0.0000 H   0  0  0  0  0  0  0  0  0  0  0  0
    5.8101   -0.8606    0.0000 H   0  0  0  0  0  0  0  0  0  0  0  0
    6.2087   -0.1704    0.0000 H   0  0  0  0  0  0  0  0  0  0  0  0
    6.2520    2.8046    0.0000 H   0  0  0  0  0  0  0  0  0  0  0  0
    5.8535    2.1143    0.0000 H   0  0  0  0  0  0  0  0  0  0  0  0
    3.3291   -0.5880    0.0000 H   0  0  0  0  0  0  0  0  0  0  0  0
    6.7932    4.0320    0.0000 H   0  0  0  0  0  0  0  0  0  0  0  0
    3.6200    3.2220    0.0000 H   0  0  0  0  0  0  0  0  0  0  0  0
    3.0000    3.8420    0.0000 H   0  0  0  0  0  0  0  0  0  0  0  0
    2.3800    3.2220    0.0000 H   0  0  0  0  0  0  0  0  0  0  0  0
    2.0000    2.8420    0.0000 H   0  0  0  0  0  0  0  0  0  0  0  0
    1.3800    2.2220    0.0000 H   0  0  0  0  0  0  0  0  0  0  0  0
    2.0000    1.6020    0.0000 H   0  0  0  0  0  0  0  0  0  0  0  0
    4.0000    1.6020    0.0000 H   0  0  0  0  0  0  0  0  0  0  0  0
    4.6200    2.2220    0.0000 H   0  0  0  0  0  0  0  0  0  0  0  0
    4.0000    2.8420    0.0000 H   0  0  0  0  0  0  0  0  0  0  0  0
    9.0991    6.8980    0.0000 H   0  0  0  0  0  0  0  0  0  0  0  0
    8.2522    7.1250    0.0000 H   0  0  0  0  0  0  0  0  0  0  0  0
    8.0252    6.2780    0.0000 H   0  0  0  0  0  0  0  0  0  0  0  0
   10.2382    5.6851    0.0000 H   0  0  0  0  0  0  0  0  0  0  0  0
   10.4651    6.5320    0.0000 H   0  0  0  0  0  0  0  0  0  0  0  0
    9.6182    6.7589    0.0000 H   0  0  0  0  0  0  0  0  0  0  0  0
    9.0252    4.5460    0.0000 H   0  0  0  0  0  0  0  0  0  0  0  0
    9.8722    4.3190    0.0000 H   0  0  0  0  0  0  0  0  0  0  0  0
   10.0991    5.1660    0.0000 H   0  0  0  0  0  0  0  0  0  0  0  0
  1  2  1  0  0  0  0
  1 39  1  0  0  0  0
  2 40  1  0  0  0  0
  3 27  1  0  0  0  0
  3 31  1  0  0  0  0
  4 28  1  0  0  0  0
  4 32  1  0  0  0  0
  5 23  1  0  0  0  0
  5 65  1  0  0  0  0
  6 24  1  0  0  0  0
  6 66  1  0  0  0  0
  7 25  1  0  0  0  0
  7 67  1  0  0  0  0
  8 26  1  0  0  0  0
  8 68  1  0  0  0  0
  9 29  1  0  0  0  0
  9 69  1  0  0  0  0
 10 30  1  0  0  0  0
 10 70  1  0  0  0  0
 11 31  1  0  0  0  0
 11 71  1  0  0  0  0
 12 32  1  0  0  0  0
 12 72  1  0  0  0  0
 13 33  1  0  0  0  0
 13 35  1  0  0  0  0
 14 34  1  0  0  0  0
 14 36  1  0  0  0  0
 15 35  2  0  0  0  0
 16 36  2  0  0  0  0
 17 41  1  0  0  0  0
 17 43  1  0  0  0  0
 18 42  1  0  0  0  0
 18 44  1  0  0  0  0
 19 41  2  0  0  0  0
 20 42  2  0  0  0  0
 21 37  1  0  0  0  0
 21 41  1  0  0  0  0
 21 79  1  0  0  0  0
 22 38  1  0  0  0  0
 22 42  1  0  0  0  0
 22 80  1  0  0  0  0
 23 25  1  0  0  0  0
 23 27  1  0  0  0  0
 23 51  1  0  0  0  0
 24 26  1  0  0  0  0
 24 28  1  0  0  0  0
 24 52  1  0  0  0  0
 25 29  1  0  0  0  0
 25 53  1  0  0  0  0
 26 30  1  0  0  0  0
 26 54  1  0  0  0  0
 27 33  1  0  0  0  0
 27 55  1  0  0  0  0
 28 34  1  0  0  0  0
 28 56  1  0  0  0  0
 29 31  1  0  0  0  0
 29 57  1  0  0  0  0
 30 32  1  0  0  0  0
 30 58  1  0  0  0  0
 31 59  1  0  0  0  0
 32 60  1  0  0  0  0
 33 61  1  0  0  0  0
 33 62  1  0  0  0  0
 34 63  1  0  0  0  0
 34 64  1  0  0  0  0
 35 37  1  0  0  0  0
 36 38  1  0  0  0  0
 37 39  1  0  0  0  0
 37 73  1  0  0  0  0
 38 40  1  0  0  0  0
 38 74  1  0  0  0  0
 39 75  1  0  0  0  0
 39 76  1  0  0  0  0
 40 77  1  0  0  0  0
 40 78  1  0  0  0  0
 43 45  1  0  0  0  0
 43 46  1  0  0  0  0
 43 47  1  0  0  0  0
 44 48  1  0  0  0  0
 44 49  1  0  0  0  0
 44 50  1  0  0  0  0
 45 81  1  0  0  0  0
 45 82  1  0  0  0  0
 45 83  1  0  0  0  0
 46 84  1  0  0  0  0
 46 85  1  0  0  0  0
 46 86  1  0  0  0  0
 47 87  1  0  0  0  0
 47 88  1  0  0  0  0
 47 89  1  0  0  0  0
 48 90  1  0  0  0  0
 48 91  1  0  0  0  0
 48 92  1  0  0  0  0
 49 93  1  0  0  0  0
 49 94  1  0  0  0  0
 49 95  1  0  0  0  0
 50 96  1  0  0  0  0
 50 97  1  0  0  0  0
 50 98  1  0  0  0  0
M  END
> <PUBCHEM_COMPOUND_CID>
3841585

> <PUBCHEM_COMPOUND_CANONICALIZED>
1

> <PUBCHEM_CACTVS_COMPLEXITY>
1050

> <PUBCHEM_CACTVS_HBOND_ACCEPTOR>
20

> <PUBCHEM_CACTVS_HBOND_DONOR>
10

> <PUBCHEM_CACTVS_ROTATABLE_BOND>
19

> <PUBCHEM_CACTVS_SUBSKEYS>
AAADcfB7PgBgAAAAAAAAAAAAAAAAAAAAAAAkSAAAAAAAAAAAAAAAHgQQCAAADHz1wAeCCALABgAIAACQGAAAAAAAAAAAAIGIAAETEAIAACALQAAFFgAXAAHAYAwAAAAAAAAAAAAAAAAAAAAAAAAAAAAAAA==

> <PUBCHEM_IUPAC_OPENEYE_NAME>
(3,4,5,6-tetrahydroxytetrahydropyran-2-yl)methyl 2-(tert-butoxycarbonylamino)-3-[[2-(tert-butoxycarbonylamino)-3-oxo-3-[(3,4,5,6-tetrahydroxytetrahydropyran-2-yl)methoxy]propyl]disulfanyl]propanoate

> <PUBCHEM_IUPAC_CAS_NAME>
2-[[(2-methylpropan-2-yl)oxy-oxomethyl]amino]-3-[[2-[[(2-methylpropan-2-yl)oxy-oxomethyl]amino]-3-oxo-3-[(3,4,5,6-tetrahydroxy-2-oxanyl)methoxy]propyl]disulfanyl]propanoic acid (3,4,5,6-tetrahydroxy-2-oxanyl)methyl ester

> <PUBCHEM_IUPAC_NAME_MARKUP>
(3,4,5,6-tetrahydroxyoxan-2-yl)methyl 2-[(2-methylpropan-2-yl)oxycarbonylamino]-3-[[2-[(2-methylpropan-2-yl)oxycarbonylamino]-3-oxo-3-[(3,4,5,6-tetrahydroxyoxan-2-yl)methoxy]propyl]disulfanyl]propanoate

> <PUBCHEM_IUPAC_NAME>
(3,4,5,6-tetrahydroxyoxan-2-yl)methyl 2-[(2-methylpropan-2-yl)oxycarbonylamino]-3-[[2-[(2-methylpropan-2-yl)oxycarbonylamino]-3-oxo-3-[(3,4,5,6-tetrahydroxyoxan-2-yl)methoxy]propyl]disulfanyl]propanoate

> <PUBCHEM_IUPAC_SYSTEMATIC_NAME>
[3,4,5,6-tetrakis(oxidanyl)oxan-2-yl]methyl 2-[(2-methylpropan-2-yl)oxycarbonylamino]-3-[[2-[(2-methylpropan-2-yl)oxycarbonylamino]-3-oxidanylidene-3-[[3,4,5,6-tetrakis(oxidanyl)oxan-2-yl]methoxy]propyl]disulfanyl]propanoate

> <PUBCHEM_IUPAC_TRADITIONAL_NAME>
2-(tert-butoxycarbonylamino)-3-[[2-(tert-butoxycarbonylamino)-3-keto-3-[(3,4,5,6-tetrahydroxytetrahydropyran-2-yl)methoxy]propyl]disulfanyl]propionic acid (3,4,5,6-tetrahydroxytetrahydropyran-2-yl)methyl ester

> <PUBCHEM_IUPAC_INCHI>
InChI=1S/C28H48N2O18S2/c1-27(2,3)47-25(41)29-11(21(37)43-7-13-15(31)17(33)19(35)23(39)45-13)9-49-50-10-12(30-26(42)48-28(4,5)6)22(38)44-8-14-16(32)18(34)20(36)24(40)46-14/h11-20,23-24,31-36,39-40H,7-10H2,1-6H3,(H,29,41)(H,30,42)

> <PUBCHEM_IUPAC_INCHIKEY>
NVRUMGAPYRSOQF-UHFFFAOYSA-N

> <PUBCHEM_XLOGP3_AA>
-3.1

> <PUBCHEM_EXACT_MASS>
764.23435503

> <PUBCHEM_MOLECULAR_FORMULA>
C28H48N2O18S2

> <PUBCHEM_MOLECULAR_WEIGHT>
764.8

> <PUBCHEM_OPENEYE_CAN_SMILES>
CC(C)(C)OC(=O)NC(CSSCC(C(=O)OCC1C(C(C(C(O1)O)O)O)O)NC(=O)OC(C)(C)C)C(=O)OCC2C(C(C(C(O2)O)O)O)O

> <PUBCHEM_OPENEYE_ISO_SMILES>
CC(C)(C)OC(=O)NC(CSSCC(C(=O)OCC1C(C(C(C(O1)O)O)O)O)NC(=O)OC(C)(C)C)C(=O)OCC2C(C(C(C(O2)O)O)O)O

> <PUBCHEM_CACTVS_TPSA>
360

> <PUBCHEM_MONOISOTOPIC_WEIGHT>
764.23435503

> <PUBCHEM_TOTAL_CHARGE>
0

> <PUBCHEM_HEAVY_ATOM_COUNT>
50

> <PUBCHEM_ATOM_DEF_STEREO_COUNT>
0

> <PUBCHEM_ATOM_UDEF_STEREO_COUNT>
12

> <PUBCHEM_BOND_DEF_STEREO_COUNT>
0

> <PUBCHEM_BOND_UDEF_STEREO_COUNT>
0

> <PUBCHEM_ISOTOPIC_ATOM_COUNT>
0

> <PUBCHEM_COMPONENT_COUNT>
1

> <PUBCHEM_CACTVS_TAUTO_COUNT>
-1

> <PUBCHEM_COORDINATE_TYPE>
1
5
255

> <PUBCHEM_BONDANNOTATIONS>
30  10  3
31  11  3
32  12  3
27  33  3
28  34  3
37  39  3
38  40  3
23  5  3
24  6  3
25  7  3
26  8  3
29  9  3

$$$$
