 
  -OEChem-10192103342D

 63 63  0     0  0  0  0  0  0999 V2000
    6.3301    3.9050    0.0000 O   0  0  0  0  0  0  0  0  0  0  0  0
    7.1962   -3.5950    0.0000 O   0  0  0  0  0  0  0  0  0  0  0  0
    4.5981    0.9050    0.0000 O   0  0  0  0  0  0  0  0  0  0  0  0
    7.1962    2.4050    0.0000 O   0  0  0  0  0  0  0  0  0  0  0  0
    5.4641   -3.5950    0.0000 O   0  0  0  0  0  0  0  0  0  0  0  0
    2.8660    1.9050    0.0000 O   0  0  0  0  0  0  0  0  0  0  0  0
    5.4641    2.4050    0.0000 C   0  0  0  0  0  0  0  0  0  0  0  0
    6.3301   -2.0950    0.0000 C   0  0  0  0  0  0  0  0  0  0  0  0
    2.8660    0.9050    0.0000 C   0  0  0  0  0  0  0  0  0  0  0  0
    5.4641    1.4050    0.0000 C   0  0  0  0  0  0  0  0  0  0  0  0
    4.5981    2.9050    0.0000 C   0  0  0  0  0  0  0  0  0  0  0  0
    7.1962   -1.5950    0.0000 C   0  0  0  0  0  0  0  0  0  0  0  0
    5.4641   -1.5950    0.0000 C   0  0  0  0  0  0  0  0  0  0  0  0
    2.0000    1.4050    0.0000 C   0  0  0  0  0  0  0  0  0  0  0  0
    2.8660   -0.0950    0.0000 C   0  0  0  0  0  0  0  0  0  0  0  0
    6.3301    0.9050    0.0000 C   0  0  0  0  0  0  0  0  0  0  0  0
    3.7320    2.4050    0.0000 C   0  0  0  0  0  0  0  0  0  0  0  0
    7.1962   -0.5950    0.0000 C   0  0  0  0  0  0  0  0  0  0  0  0
    4.5981   -2.0950    0.0000 C   0  0  0  0  0  0  0  0  0  0  0  0
    2.0000    2.4050    0.0000 C   0  0  0  0  0  0  0  0  0  0  0  0
    3.7320   -0.5950    0.0000 C   0  0  0  0  0  0  0  0  0  0  0  0
    6.3301   -0.0950    0.0000 C   0  0  0  0  0  0  0  0  0  0  0  0
    2.8660    2.9050    0.0000 C   0  0  0  0  0  0  0  0  0  0  0  0
    3.7320   -1.5950    0.0000 C   0  0  0  0  0  0  0  0  0  0  0  0
    6.3301    2.9050    0.0000 C   0  0  0  0  0  0  0  0  0  0  0  0
    6.3301   -3.0950    0.0000 C   0  0  0  0  0  0  0  0  0  0  0  0
    3.7320    1.4050    0.0000 C   0  0  0  0  0  0  0  0  0  0  0  0
    5.4641    3.0250    0.0000 H   0  0  0  0  0  0  0  0  0  0  0  0
    6.8671   -2.4050    0.0000 H   0  0  0  0  0  0  0  0  0  0  0  0
    3.4030    0.5950    0.0000 H   0  0  0  0  0  0  0  0  0  0  0  0
    4.8535    1.5127    0.0000 H   0  0  0  0  0  0  0  0  0  0  0  0
    5.2520    0.8224    0.0000 H   0  0  0  0  0  0  0  0  0  0  0  0
    4.9966    3.3800    0.0000 H   0  0  0  0  0  0  0  0  0  0  0  0
    4.1996    3.3800    0.0000 H   0  0  0  0  0  0  0  0  0  0  0  0
    7.4082   -2.1776    0.0000 H   0  0  0  0  0  0  0  0  0  0  0  0
    7.8067   -1.4873    0.0000 H   0  0  0  0  0  0  0  0  0  0  0  0
    5.8626   -1.1200    0.0000 H   0  0  0  0  0  0  0  0  0  0  0  0
    5.0656   -1.1200    0.0000 H   0  0  0  0  0  0  0  0  0  0  0  0
    1.7880    0.8224    0.0000 H   0  0  0  0  0  0  0  0  0  0  0  0
    1.3894    1.5127    0.0000 H   0  0  0  0  0  0  0  0  0  0  0  0
    2.2554    0.0127    0.0000 H   0  0  0  0  0  0  0  0  0  0  0  0
    2.6540   -0.6776    0.0000 H   0  0  0  0  0  0  0  0  0  0  0  0
    6.9407    0.7973    0.0000 H   0  0  0  0  0  0  0  0  0  0  0  0
    6.5422    1.4876    0.0000 H   0  0  0  0  0  0  0  0  0  0  0  0
    3.3335    1.9300    0.0000 H   0  0  0  0  0  0  0  0  0  0  0  0
    4.1306    1.9300    0.0000 H   0  0  0  0  0  0  0  0  0  0  0  0
    7.8067   -0.7027    0.0000 H   0  0  0  0  0  0  0  0  0  0  0  0
    7.4082   -0.0124    0.0000 H   0  0  0  0  0  0  0  0  0  0  0  0
    4.1996   -2.5700    0.0000 H   0  0  0  0  0  0  0  0  0  0  0  0
    4.9966   -2.5700    0.0000 H   0  0  0  0  0  0  0  0  0  0  0  0
    1.3894    2.2973    0.0000 H   0  0  0  0  0  0  0  0  0  0  0  0
    1.7880    2.9876    0.0000 H   0  0  0  0  0  0  0  0  0  0  0  0
    4.3426   -0.7027    0.0000 H   0  0  0  0  0  0  0  0  0  0  0  0
    3.9441   -0.0124    0.0000 H   0  0  0  0  0  0  0  0  0  0  0  0
    5.7196    0.0127    0.0000 H   0  0  0  0  0  0  0  0  0  0  0  0
    6.1181   -0.6776    0.0000 H   0  0  0  0  0  0  0  0  0  0  0  0
    3.2646    3.3800    0.0000 H   0  0  0  0  0  0  0  0  0  0  0  0
    2.4675    3.3800    0.0000 H   0  0  0  0  0  0  0  0  0  0  0  0
    3.1215   -1.4873    0.0000 H   0  0  0  0  0  0  0  0  0  0  0  0
    3.5200   -2.1776    0.0000 H   0  0  0  0  0  0  0  0  0  0  0  0
    6.8671    4.2150    0.0000 H   0  0  0  0  0  0  0  0  0  0  0  0
    7.1962   -4.2150    0.0000 H   0  0  0  0  0  0  0  0  0  0  0  0
    4.5981    0.2850    0.0000 H   0  0  0  0  0  0  0  0  0  0  0  0
  1 25  1  0  0  0  0
  1 61  1  0  0  0  0
  2 26  1  0  0  0  0
  2 62  1  0  0  0  0
  3 27  1  0  0  0  0
  3 63  1  0  0  0  0
  4 25  2  0  0  0  0
  5 26  2  0  0  0  0
  6 27  2  0  0  0  0
  7 10  1  0  0  0  0
  7 11  1  0  0  0  0
  7 25  1  0  0  0  0
  7 28  1  0  0  0  0
  8 12  1  0  0  0  0
  8 13  1  0  0  0  0
  8 26  1  0  0  0  0
  8 29  1  0  0  0  0
  9 14  1  0  0  0  0
  9 15  1  0  0  0  0
  9 27  1  0  0  0  0
  9 30  1  0  0  0  0
 10 16  1  0  0  0  0
 10 31  1  0  0  0  0
 10 32  1  0  0  0  0
 11 17  1  0  0  0  0
 11 33  1  0  0  0  0
 11 34  1  0  0  0  0
 12 18  1  0  0  0  0
 12 35  1  0  0  0  0
 12 36  1  0  0  0  0
 13 19  1  0  0  0  0
 13 37  1  0  0  0  0
 13 38  1  0  0  0  0
 14 20  1  0  0  0  0
 14 39  1  0  0  0  0
 14 40  1  0  0  0  0
 15 21  1  0  0  0  0
 15 41  1  0  0  0  0
 15 42  1  0  0  0  0
 16 22  1  0  0  0  0
 16 43  1  0  0  0  0
 16 44  1  0  0  0  0
 17 23  1  0  0  0  0
 17 45  1  0  0  0  0
 17 46  1  0  0  0  0
 18 22  1  0  0  0  0
 18 47  1  0  0  0  0
 18 48  1  0  0  0  0
 19 24  1  0  0  0  0
 19 49  1  0  0  0  0
 19 50  1  0  0  0  0
 20 23  1  0  0  0  0
 20 51  1  0  0  0  0
 20 52  1  0  0  0  0
 21 24  1  0  0  0  0
 21 53  1  0  0  0  0
 21 54  1  0  0  0  0
 22 55  1  0  0  0  0
 22 56  1  0  0  0  0
 23 57  1  0  0  0  0
 23 58  1  0  0  0  0
 24 59  1  0  0  0  0
 24 60  1  0  0  0  0
M  END
> <PUBCHEM_COMPOUND_CID>
10715056

> <PUBCHEM_COMPOUND_CANONICALIZED>
1

> <PUBCHEM_CACTVS_COMPLEXITY>
377

> <PUBCHEM_CACTVS_HBOND_ACCEPTOR>
6

> <PUBCHEM_CACTVS_HBOND_DONOR>
3

> <PUBCHEM_CACTVS_ROTATABLE_BOND>
3

> <PUBCHEM_CACTVS_SUBSKEYS>
AAADcfB4OAAAAAAAAAAAAAAAAAAAAAAAAAAAAAAAAAAAAAAAAAAAGgAACAAADQCAgAAACAAAAgAIAACQCAAAAAAAAAAAAAEAAAAAABIAAAAAQAAEAAAAAAGIyOCOAAAAAAAAAAAAAAAAAAAAAAAAAAAAAA==

> <PUBCHEM_IUPAC_OPENEYE_NAME>
cyclooctadecane-1,7,13-tricarboxylic acid

> <PUBCHEM_IUPAC_CAS_NAME>
cyclooctadecane-1,7,13-tricarboxylic acid

> <PUBCHEM_IUPAC_NAME_MARKUP>
cyclooctadecane-1,7,13-tricarboxylic acid

> <PUBCHEM_IUPAC_NAME>
cyclooctadecane-1,7,13-tricarboxylic acid

> <PUBCHEM_IUPAC_SYSTEMATIC_NAME>
cyclooctadecane-1,7,13-tricarboxylic acid

> <PUBCHEM_IUPAC_TRADITIONAL_NAME>
cyclooctadecane-1,7,13-tricarboxylic acid

> <PUBCHEM_IUPAC_INCHI>
InChI=1S/C21H36O6/c22-19(23)16-10-4-1-5-11-17(20(24)25)13-7-3-9-15-18(21(26)27)14-8-2-6-12-16/h16-18H,1-15H2,(H,22,23)(H,24,25)(H,26,27)

> <PUBCHEM_IUPAC_INCHIKEY>
KXOMXDWLYCXRFQ-UHFFFAOYSA-N

> <PUBCHEM_XLOGP3_AA>
5.6

> <PUBCHEM_EXACT_MASS>
384.25118886

> <PUBCHEM_MOLECULAR_FORMULA>
C21H36O6

> <PUBCHEM_MOLECULAR_WEIGHT>
384.5

> <PUBCHEM_OPENEYE_CAN_SMILES>
C1CCC(CCCCCC(CCCCCC(CC1)C(=O)O)C(=O)O)C(=O)O

> <PUBCHEM_OPENEYE_ISO_SMILES>
C1CCC(CCCCCC(CCCCCC(CC1)C(=O)O)C(=O)O)C(=O)O

> <PUBCHEM_CACTVS_TPSA>
112

> <PUBCHEM_MONOISOTOPIC_WEIGHT>
384.25118886

> <PUBCHEM_TOTAL_CHARGE>
0

> <PUBCHEM_HEAVY_ATOM_COUNT>
27

> <PUBCHEM_ATOM_DEF_STEREO_COUNT>
0

> <PUBCHEM_ATOM_UDEF_STEREO_COUNT>
0

> <PUBCHEM_BOND_DEF_STEREO_COUNT>
0

> <PUBCHEM_BOND_UDEF_STEREO_COUNT>
0

> <PUBCHEM_ISOTOPIC_ATOM_COUNT>
0

> <PUBCHEM_COMPONENT_COUNT>
1

> <PUBCHEM_CACTVS_TAUTO_COUNT>
-1

> <PUBCHEM_COORDINATE_TYPE>
1
5
255

$$$$
