 
  -OEChem-10192104352D

 70 73  0     1  0  0  0  0  0999 V2000
    4.5032    1.0589    0.0000 O   0  0  0  0  0  0  0  0  0  0  0  0
    4.0032   -1.4799    0.0000 O   0  0  0  0  0  0  0  0  0  0  0  0
    5.5910   -1.2889    0.0000 O   0  0  0  0  0  0  0  0  0  0  0  0
    6.4712    1.7583    0.0000 O   0  0  0  0  0  0  0  0  0  0  0  0
    2.0000    0.1110    0.0000 O   0  0  0  0  0  0  0  0  0  0  0  0
    2.2712   -1.4799    0.0000 O   0  0  0  0  0  0  0  0  0  0  0  0
    6.9923   -0.2709    0.0000 O   0  0  0  0  0  0  0  0  0  0  0  0
    8.1654    1.3982    0.0000 O   0  0  0  0  0  0  0  0  0  0  0  0
    2.3273    2.7364    0.0000 N   0  0  0  0  0  0  0  0  0  0  0  0
    4.0032   -0.4799    0.0000 C   0  0  2  0  0  0  0  0  0  0  0  0
    5.0032   -0.4799    0.0000 C   0  0  1  0  0  0  0  0  0  0  0  0
    5.3122    0.4711    0.0000 C   0  0  3  0  0  0  0  0  0  0  0  0
    3.6942    0.4711    0.0000 C   0  0  2  0  0  0  0  0  0  0  0  0
    3.0522   -0.7889    0.0000 C   0  0  0  0  0  0  0  0  0  0  0  0
    6.2633    0.7802    0.0000 C   0  0  0  0  0  0  0  0  0  0  0  0
    2.7431    0.7802    0.0000 C   0  0  0  0  0  0  0  0  0  0  0  0
    3.1372   -1.9799    0.0000 C   0  0  0  0  0  0  0  0  0  0  0  0
    6.5855   -1.1844    0.0000 C   0  0  0  0  0  0  0  0  0  0  0  0
    2.5352    1.7583    0.0000 C   0  0  0  0  0  0  0  0  0  0  0  0
    3.1372   -2.9799    0.0000 C   0  0  0  0  0  0  0  0  0  0  0  0
    7.1733   -1.9934    0.0000 C   0  0  0  0  0  0  0  0  0  0  0  0
    7.4223    2.0673    0.0000 C   0  0  0  0  0  0  0  0  0  0  0  0
    4.0032   -3.4799    0.0000 C   0  0  0  0  0  0  0  0  0  0  0  0
    2.2712   -3.4799    0.0000 C   0  0  0  0  0  0  0  0  0  0  0  0
    6.7666   -2.9070    0.0000 C   0  0  0  0  0  0  0  0  0  0  0  0
    8.1678   -1.8889    0.0000 C   0  0  0  0  0  0  0  0  0  0  0  0
    7.6302    3.0455    0.0000 C   0  0  0  0  0  0  0  0  0  0  0  0
    4.0032   -4.4799    0.0000 C   0  0  0  0  0  0  0  0  0  0  0  0
    2.2712   -4.4799    0.0000 C   0  0  0  0  0  0  0  0  0  0  0  0
    7.3544   -3.7160    0.0000 C   0  0  0  0  0  0  0  0  0  0  0  0
    8.7556   -2.6979    0.0000 C   0  0  0  0  0  0  0  0  0  0  0  0
    3.1372   -4.9799    0.0000 C   0  0  0  0  0  0  0  0  0  0  0  0
    8.3489   -3.6114    0.0000 C   0  0  0  0  0  0  0  0  0  0  0  0
    8.5812    3.3545    0.0000 C   0  0  0  0  0  0  0  0  0  0  0  0
    6.8870    3.7146    0.0000 C   0  0  0  0  0  0  0  0  0  0  0  0
    8.7891    4.3326    0.0000 C   0  0  0  0  0  0  0  0  0  0  0  0
    7.0949    4.6928    0.0000 C   0  0  0  0  0  0  0  0  0  0  0  0
    3.1372   -5.9799    0.0000 C   0  0  0  0  0  0  0  0  0  0  0  0
    8.9367   -4.4205    0.0000 C   0  0  0  0  0  0  0  0  0  0  0  0
    8.0460    5.0018    0.0000 C   0  0  0  0  0  0  0  0  0  0  0  0
    8.2539    5.9799    0.0000 C   0  0  0  0  0  0  0  0  0  0  0  0
    4.7217   -1.0323    0.0000 H   0  0  0  0  0  0  0  0  0  0  0  0
    5.4092    1.0835    0.0000 H   0  0  0  0  0  0  0  0  0  0  0  0
    3.5972    1.0835    0.0000 H   0  0  0  0  0  0  0  0  0  0  0  0
    2.8606   -0.1993    0.0000 H   0  0  0  0  0  0  0  0  0  0  0  0
    2.4625   -0.9805    0.0000 H   0  0  0  0  0  0  0  0  0  0  0  0
    3.2438   -1.3786    0.0000 H   0  0  0  0  0  0  0  0  0  0  0  0
    6.3496    0.1662    0.0000 H   0  0  0  0  0  0  0  0  0  0  0  0
    6.8829    0.7585    0.0000 H   0  0  0  0  0  0  0  0  0  0  0  0
    4.5402   -3.1699    0.0000 H   0  0  0  0  0  0  0  0  0  0  0  0
    1.7342   -3.1699    0.0000 H   0  0  0  0  0  0  0  0  0  0  0  0
    6.1500   -2.9718    0.0000 H   0  0  0  0  0  0  0  0  0  0  0  0
    8.4200   -1.3225    0.0000 H   0  0  0  0  0  0  0  0  0  0  0  0
    4.5402   -4.7899    0.0000 H   0  0  0  0  0  0  0  0  0  0  0  0
    1.7342   -4.7899    0.0000 H   0  0  0  0  0  0  0  0  0  0  0  0
    7.1022   -4.2824    0.0000 H   0  0  0  0  0  0  0  0  0  0  0  0
    9.3722   -2.6331    0.0000 H   0  0  0  0  0  0  0  0  0  0  0  0
    9.0420    2.9396    0.0000 H   0  0  0  0  0  0  0  0  0  0  0  0
    6.2974    3.5230    0.0000 H   0  0  0  0  0  0  0  0  0  0  0  0
    9.3788    4.5242    0.0000 H   0  0  0  0  0  0  0  0  0  0  0  0
    6.6342    5.1076    0.0000 H   0  0  0  0  0  0  0  0  0  0  0  0
    2.5172   -5.9799    0.0000 H   0  0  0  0  0  0  0  0  0  0  0  0
    3.1372   -6.5999    0.0000 H   0  0  0  0  0  0  0  0  0  0  0  0
    3.7572   -5.9799    0.0000 H   0  0  0  0  0  0  0  0  0  0  0  0
    8.4351   -4.7849    0.0000 H   0  0  0  0  0  0  0  0  0  0  0  0
    9.3011   -4.9221    0.0000 H   0  0  0  0  0  0  0  0  0  0  0  0
    9.4383   -4.0560    0.0000 H   0  0  0  0  0  0  0  0  0  0  0  0
    8.8604    5.8510    0.0000 H   0  0  0  0  0  0  0  0  0  0  0  0
    8.3828    6.5864    0.0000 H   0  0  0  0  0  0  0  0  0  0  0  0
    7.6475    6.1088    0.0000 H   0  0  0  0  0  0  0  0  0  0  0  0
  1 12  1  0  0  0  0
  1 13  1  0  0  0  0
 10  2  1  1  0  0  0
  2 17  1  0  0  0  0
 11  3  1  1  0  0  0
  3 18  1  0  0  0  0
  4 15  1  0  0  0  0
  4 22  1  0  0  0  0
  5 16  2  0  0  0  0
  6 17  2  0  0  0  0
  7 18  2  0  0  0  0
  8 22  2  0  0  0  0
  9 19  3  0  0  0  0
 10 11  1  0  0  0  0
 10 13  1  0  0  0  0
 10 14  1  0  0  0  0
 11 12  1  0  0  0  0
 11 42  1  0  0  0  0
 12 15  1  0  0  0  0
 12 43  1  0  0  0  0
 13 16  1  6  0  0  0
 13 44  1  0  0  0  0
 14 45  1  0  0  0  0
 14 46  1  0  0  0  0
 14 47  1  0  0  0  0
 15 48  1  0  0  0  0
 15 49  1  0  0  0  0
 16 19  1  0  0  0  0
 17 20  1  0  0  0  0
 18 21  1  0  0  0  0
 20 23  2  0  0  0  0
 20 24  1  0  0  0  0
 21 25  2  0  0  0  0
 21 26  1  0  0  0  0
 22 27  1  0  0  0  0
 23 28  1  0  0  0  0
 23 50  1  0  0  0  0
 24 29  2  0  0  0  0
 24 51  1  0  0  0  0
 25 30  1  0  0  0  0
 25 52  1  0  0  0  0
 26 31  2  0  0  0  0
 26 53  1  0  0  0  0
 27 34  2  0  0  0  0
 27 35  1  0  0  0  0
 28 32  2  0  0  0  0
 28 54  1  0  0  0  0
 29 32  1  0  0  0  0
 29 55  1  0  0  0  0
 30 33  2  0  0  0  0
 30 56  1  0  0  0  0
 31 33  1  0  0  0  0
 31 57  1  0  0  0  0
 32 38  1  0  0  0  0
 33 39  1  0  0  0  0
 34 36  1  0  0  0  0
 34 58  1  0  0  0  0
 35 37  2  0  0  0  0
 35 59  1  0  0  0  0
 36 40  2  0  0  0  0
 36 60  1  0  0  0  0
 37 40  1  0  0  0  0
 37 61  1  0  0  0  0
 38 62  1  0  0  0  0
 38 63  1  0  0  0  0
 38 64  1  0  0  0  0
 39 65  1  0  0  0  0
 39 66  1  0  0  0  0
 39 67  1  0  0  0  0
 40 41  1  0  0  0  0
 41 68  1  0  0  0  0
 41 69  1  0  0  0  0
 41 70  1  0  0  0  0
M  END
> <PUBCHEM_COMPOUND_CID>
57680375

> <PUBCHEM_COMPOUND_CANONICALIZED>
1

> <PUBCHEM_CACTVS_COMPLEXITY>
1010

> <PUBCHEM_CACTVS_HBOND_ACCEPTOR>
9

> <PUBCHEM_CACTVS_HBOND_DONOR>
0

> <PUBCHEM_CACTVS_ROTATABLE_BOND>
11

> <PUBCHEM_CACTVS_SUBSKEYS>
AAADceB+PAAAAAAAAAAAAAAAAAAAASAAAAAwYMAAAAAAAAABUAAAHgAAAAAADFShmAIyCIAABACYBqDSCAICAAAkAAAIiAFACMgJpjaANRyCMQAl4AEKqY/K7DzOQAAAAAAAAACAAAAAAAAAAAAAAAAAAA==

> <PUBCHEM_IUPAC_OPENEYE_NAME>
[(3R,4R,5R)-5-carbonocyanidoyl-4-methyl-3,4-bis[(4-methylbenzoyl)oxy]tetrahydrofuran-2-yl]methyl 4-methylbenzoate

> <PUBCHEM_IUPAC_CAS_NAME>
4-methylbenzoic acid [(3R,4R,5R)-5-carbonocyanidoyl-4-methyl-3,4-bis[(4-methylphenyl)-oxomethoxy]-2-oxolanyl]methyl ester

> <PUBCHEM_IUPAC_NAME_MARKUP>
[(3<I>R</I>,4<I>R</I>,5<I>R</I>)-5-carbonocyanidoyl-4-methyl-3,4-bis[(4-methylbenzoyl)oxy]oxolan-2-yl]methyl 4-methylbenzoate

> <PUBCHEM_IUPAC_NAME>
[(3R,4R,5R)-5-carbonocyanidoyl-4-methyl-3,4-bis[(4-methylbenzoyl)oxy]oxolan-2-yl]methyl 4-methylbenzoate

> <PUBCHEM_IUPAC_SYSTEMATIC_NAME>
[(3R,4R,5R)-5-carbonocyanidoyl-4-methyl-3,4-bis[(4-methylphenyl)carbonyloxy]oxolan-2-yl]methyl 4-methylbenzoate

> <PUBCHEM_IUPAC_TRADITIONAL_NAME>
4-methylbenzoic acid [(3R,4R,5R)-5-carbonocyanidoyl-4-methyl-3,4-bis(p-toluoyloxy)tetrahydrofuran-2-yl]methyl ester

> <PUBCHEM_IUPAC_INCHI>
InChI=1S/C32H29NO8/c1-19-5-11-22(12-6-19)29(35)38-18-26-28(40-30(36)23-13-7-20(2)8-14-23)32(4,27(39-26)25(34)17-33)41-31(37)24-15-9-21(3)10-16-24/h5-16,26-28H,18H2,1-4H3/t26?,27-,28+,32-/m0/s1

> <PUBCHEM_IUPAC_INCHIKEY>
KHLDKVQPGXQAQW-FOGYEMDKSA-N

> <PUBCHEM_XLOGP3_AA>
5.7

> <PUBCHEM_EXACT_MASS>
555.18931688

> <PUBCHEM_MOLECULAR_FORMULA>
C32H29NO8

> <PUBCHEM_MOLECULAR_WEIGHT>
555.6

> <PUBCHEM_OPENEYE_CAN_SMILES>
CC1=CC=C(C=C1)C(=O)OCC2C(C(C(O2)C(=O)C#N)(C)OC(=O)C3=CC=C(C=C3)C)OC(=O)C4=CC=C(C=C4)C

> <PUBCHEM_OPENEYE_ISO_SMILES>
CC1=CC=C(C=C1)C(=O)OCC2[C@H]([C@@]([C@@H](O2)C(=O)C#N)(C)OC(=O)C3=CC=C(C=C3)C)OC(=O)C4=CC=C(C=C4)C

> <PUBCHEM_CACTVS_TPSA>
129

> <PUBCHEM_MONOISOTOPIC_WEIGHT>
555.18931688

> <PUBCHEM_TOTAL_CHARGE>
0

> <PUBCHEM_HEAVY_ATOM_COUNT>
41

> <PUBCHEM_ATOM_DEF_STEREO_COUNT>
3

> <PUBCHEM_ATOM_UDEF_STEREO_COUNT>
1

> <PUBCHEM_BOND_DEF_STEREO_COUNT>
0

> <PUBCHEM_BOND_UDEF_STEREO_COUNT>
0

> <PUBCHEM_ISOTOPIC_ATOM_COUNT>
0

> <PUBCHEM_COMPONENT_COUNT>
1

> <PUBCHEM_CACTVS_TAUTO_COUNT>
-1

> <PUBCHEM_COORDINATE_TYPE>
1
5
255

> <PUBCHEM_BONDANNOTATIONS>
12  15  3
13  16  6
10  2  5
20  23  8
20  24  8
21  25  8
21  26  8
23  28  8
24  29  8
25  30  8
26  31  8
27  34  8
27  35  8
28  32  8
29  32  8
11  3  5
30  33  8
31  33  8
34  36  8
35  37  8
36  40  8
37  40  8

$$$$
