 
  -OEChem-10192103412D

 28 28  0     1  0  0  0  0  0999 V2000
    6.1807   -1.9507    0.0000 O   0  0  0  0  0  0  0  0  0  0  0  0
    5.9589    1.8971    0.0000 O   0  0  0  0  0  0  0  0  0  0  0  0
    8.5472   -0.2418    0.0000 O   0  0  0  0  0  0  0  0  0  0  0  0
    2.5896   -0.5508    0.0000 O   0  0  0  0  0  0  0  0  0  0  0  0
    3.1249    1.0965    0.0000 O   0  0  0  0  0  0  0  0  0  0  0  0
    5.9019   -0.1907    0.0000 C   0  0  1  0  0  0  0  0  0  0  0  0
    5.5929   -1.1417    0.0000 C   0  0  1  0  0  0  0  0  0  0  0  0
    5.0929    0.3971    0.0000 C   0  0  0  0  0  0  0  0  0  0  0  0
    4.5929   -1.1417    0.0000 C   0  0  0  0  0  0  0  0  0  0  0  0
    6.8530    0.1184    0.0000 C   0  0  0  0  0  0  0  0  0  0  0  0
    4.2839   -0.1907    0.0000 C   0  0  0  0  0  0  0  0  0  0  0  0
    5.0929    1.3971    0.0000 C   0  0  0  0  0  0  0  0  0  0  0  0
    7.5961   -0.5508    0.0000 C   0  0  0  0  0  0  0  0  0  0  0  0
    3.3328    0.1184    0.0000 C   0  0  0  0  0  0  0  0  0  0  0  0
    5.9989    0.4217    0.0000 H   0  0  0  0  0  0  0  0  0  0  0  0
    6.2052   -1.0447    0.0000 H   0  0  0  0  0  0  0  0  0  0  0  0
    3.9864   -1.2706    0.0000 H   0  0  0  0  0  0  0  0  0  0  0  0
    4.6577   -1.7583    0.0000 H   0  0  0  0  0  0  0  0  0  0  0  0
    7.3415    0.5001    0.0000 H   0  0  0  0  0  0  0  0  0  0  0  0
    6.5619    0.6658    0.0000 H   0  0  0  0  0  0  0  0  0  0  0  0
    4.8808    1.9797    0.0000 H   0  0  0  0  0  0  0  0  0  0  0  0
    4.4823    1.2895    0.0000 H   0  0  0  0  0  0  0  0  0  0  0  0
    7.1075   -0.9325    0.0000 H   0  0  0  0  0  0  0  0  0  0  0  0
    7.8872   -1.0982    0.0000 H   0  0  0  0  0  0  0  0  0  0  0  0
    5.9285   -2.5171    0.0000 H   0  0  0  0  0  0  0  0  0  0  0  0
    5.9589    2.5171    0.0000 H   0  0  0  0  0  0  0  0  0  0  0  0
    9.0079   -0.6566    0.0000 H   0  0  0  0  0  0  0  0  0  0  0  0
    2.0000   -0.3592    0.0000 H   0  0  0  0  0  0  0  0  0  0  0  0
  7  1  1  6  0  0  0
  1 25  1  0  0  0  0
  2 12  1  0  0  0  0
  2 26  1  0  0  0  0
  3 13  1  0  0  0  0
  3 27  1  0  0  0  0
  4 14  1  0  0  0  0
  4 28  1  0  0  0  0
  5 14  2  0  0  0  0
  6  7  1  0  0  0  0
  6  8  1  0  0  0  0
  6 10  1  1  0  0  0
  6 15  1  0  0  0  0
  7  9  1  0  0  0  0
  7 16  1  0  0  0  0
  8 11  2  0  0  0  0
  8 12  1  0  0  0  0
  9 11  1  0  0  0  0
  9 17  1  0  0  0  0
  9 18  1  0  0  0  0
 10 13  1  0  0  0  0
 10 19  1  0  0  0  0
 10 20  1  0  0  0  0
 11 14  1  0  0  0  0
 12 21  1  0  0  0  0
 12 22  1  0  0  0  0
 13 23  1  0  0  0  0
 13 24  1  0  0  0  0
M  END
> <PUBCHEM_COMPOUND_CID>
101414433

> <PUBCHEM_COMPOUND_CANONICALIZED>
1

> <PUBCHEM_CACTVS_COMPLEXITY>
258

> <PUBCHEM_CACTVS_HBOND_ACCEPTOR>
5

> <PUBCHEM_CACTVS_HBOND_DONOR>
4

> <PUBCHEM_CACTVS_ROTATABLE_BOND>
4

> <PUBCHEM_CACTVS_SUBSKEYS>
AAADccBwOAAAAAAAAAAAAAAAAAAAAQAAAAAAAAAAAAAAAAAAAAAAGgAACAAADRSggAIACAAAAgCIAgDQCAAAAAAgAAAACAEAAEgAFBIAAAAAUAAEwAAIEQPK6DCOAAAAAAAAAAAAAAAAAAAAAAAAAAAAAA==

> <PUBCHEM_IUPAC_OPENEYE_NAME>
(3R,4R)-4-hydroxy-3-(2-hydroxyethyl)-2-(hydroxymethyl)cyclopentene-1-carboxylic acid

> <PUBCHEM_IUPAC_CAS_NAME>
(3R,4R)-4-hydroxy-3-(2-hydroxyethyl)-2-(hydroxymethyl)-1-cyclopentenecarboxylic acid

> <PUBCHEM_IUPAC_NAME_MARKUP>
(3<I>R</I>,4<I>R</I>)-4-hydroxy-3-(2-hydroxyethyl)-2-(hydroxymethyl)cyclopentene-1-carboxylic acid

> <PUBCHEM_IUPAC_NAME>
(3R,4R)-4-hydroxy-3-(2-hydroxyethyl)-2-(hydroxymethyl)cyclopentene-1-carboxylic acid

> <PUBCHEM_IUPAC_SYSTEMATIC_NAME>
(3R,4R)-3-(2-hydroxyethyl)-2-(hydroxymethyl)-4-oxidanyl-cyclopentene-1-carboxylic acid

> <PUBCHEM_IUPAC_TRADITIONAL_NAME>
(3R,4R)-4-hydroxy-3-(2-hydroxyethyl)-2-methylol-cyclopentene-1-carboxylic acid

> <PUBCHEM_IUPAC_INCHI>
InChI=1S/C9H14O5/c10-2-1-5-7(4-11)6(9(13)14)3-8(5)12/h5,8,10-12H,1-4H2,(H,13,14)/t5-,8-/m1/s1

> <PUBCHEM_IUPAC_INCHIKEY>
WAHALFRXWBOMQA-SVGQVSJJSA-N

> <PUBCHEM_XLOGP3_AA>
-1.9

> <PUBCHEM_EXACT_MASS>
202.08412354

> <PUBCHEM_MOLECULAR_FORMULA>
C9H14O5

> <PUBCHEM_MOLECULAR_WEIGHT>
202.20

> <PUBCHEM_OPENEYE_CAN_SMILES>
C1C(C(C(=C1C(=O)O)CO)CCO)O

> <PUBCHEM_OPENEYE_ISO_SMILES>
C1[C@H]([C@@H](C(=C1C(=O)O)CO)CCO)O

> <PUBCHEM_CACTVS_TPSA>
98

> <PUBCHEM_MONOISOTOPIC_WEIGHT>
202.08412354

> <PUBCHEM_TOTAL_CHARGE>
0

> <PUBCHEM_HEAVY_ATOM_COUNT>
14

> <PUBCHEM_ATOM_DEF_STEREO_COUNT>
2

> <PUBCHEM_ATOM_UDEF_STEREO_COUNT>
0

> <PUBCHEM_BOND_DEF_STEREO_COUNT>
0

> <PUBCHEM_BOND_UDEF_STEREO_COUNT>
0

> <PUBCHEM_ISOTOPIC_ATOM_COUNT>
0

> <PUBCHEM_COMPONENT_COUNT>
1

> <PUBCHEM_CACTVS_TAUTO_COUNT>
-1

> <PUBCHEM_COORDINATE_TYPE>
1
5
255

> <PUBCHEM_BONDANNOTATIONS>
7  1  6
6  10  5

$$$$
