 
  -OEChem-10192104172D

 71 75  0     1  0  0  0  0  0999 V2000
    7.7331    0.9163    0.0000 O   0  0  0  0  0  0  0  0  0  0  0  0
    7.7811    5.0714    0.0000 O   0  0  0  0  0  0  0  0  0  0  0  0
    5.9257    1.9691    0.0000 O   0  0  0  0  0  0  0  0  0  0  0  0
    5.9499    4.0606    0.0000 O   0  0  0  0  0  0  0  0  0  0  0  0
   11.3633    3.9354    0.0000 O   0  0  0  0  0  0  0  0  0  0  0  0
   10.5981   -0.5539    0.0000 O   0  0  0  0  0  0  0  0  0  0  0  0
   12.0072    0.2238    0.0000 O   0  0  0  0  0  0  0  0  0  0  0  0
    4.2690   -2.0837    0.0000 O   0  0  0  0  0  0  0  0  0  0  0  0
    6.0010   -2.0837    0.0000 O   0  0  0  0  0  0  0  0  0  0  0  0
   12.1779    2.3880    0.0000 O   0  0  0  0  0  0  0  0  0  0  0  0
    6.0010    0.9163    0.0000 O   0  0  0  0  0  0  0  0  0  0  0  0
    6.0010   -4.0837    0.0000 O   0  0  0  0  0  0  0  0  0  0  0  0
    4.2690   -5.0837    0.0000 O   0  0  0  0  0  0  0  0  0  0  0  0
    2.5369   -4.0837    0.0000 O   0  0  0  0  0  0  0  0  0  0  0  0
    2.5369   -1.0837    0.0000 O   0  0  0  0  0  0  0  0  0  0  0  0
    9.5946    4.0073    0.0000 N   0  0  0  0  0  0  0  0  0  0  0  0
    8.6706    2.4624    0.0000 C   0  0  2  0  0  0  0  0  0  0  0  0
    8.6827    3.5040    0.0000 C   0  0  2  0  0  0  0  0  0  0  0  0
    7.7331    1.9163    0.0000 C   0  0  2  0  0  0  0  0  0  0  0  0
    7.7580    4.0716    0.0000 C   0  0  1  0  0  0  0  0  0  0  0  0
    6.7956    2.4624    0.0000 C   0  0  1  0  0  0  0  0  0  0  0  0
    6.8081    3.5473    0.0000 C   0  0  1  0  0  0  0  0  0  0  0  0
    9.5707    1.9381    0.0000 C   0  0  0  0  0  0  0  0  0  0  0  0
   10.4462    2.4214    0.0000 C   0  0  0  0  0  0  0  0  0  0  0  0
   10.4823    3.4624    0.0000 C   0  0  0  0  0  0  0  0  0  0  0  0
    9.5514    0.9383    0.0000 C   0  0  0  0  0  0  0  0  0  0  0  0
   11.3024    1.9048    0.0000 C   0  0  0  0  0  0  0  0  0  0  0  0
   10.4076    0.4217    0.0000 C   0  0  0  0  0  0  0  0  0  0  0  0
   11.2831    0.9049    0.0000 C   0  0  0  0  0  0  0  0  0  0  0  0
    6.8671    0.4163    0.0000 C   0  0  0  0  0  0  0  0  0  0  0  0
    6.8671   -0.5837    0.0000 C   0  0  0  0  0  0  0  0  0  0  0  0
    5.1350   -3.5837    0.0000 C   0  0  2  0  0  0  0  0  0  0  0  0
    4.2690   -4.0837    0.0000 C   0  0  2  0  0  0  0  0  0  0  0  0
    5.1350   -2.5837    0.0000 C   0  0  1  0  0  0  0  0  0  0  0  0
    3.4030   -3.5837    0.0000 C   0  0  1  0  0  0  0  0  0  0  0  0
    6.0010   -1.0837    0.0000 C   0  0  3  0  0  0  0  0  0  0  0  0
    3.4030   -2.5837    0.0000 C   0  0  1  0  0  0  0  0  0  0  0  0
   11.5846   -0.6760    0.0000 C   0  0  0  0  0  0  0  0  0  0  0  0
    2.5369   -2.0837    0.0000 C   0  0  0  0  0  0  0  0  0  0  0  0
    5.1350   -0.5837    0.0000 C   0  0  0  0  0  0  0  0  0  0  0  0
    8.6706    1.6124    0.0000 H   0  0  0  0  0  0  0  0  0  0  0  0
    8.7023    4.3538    0.0000 H   0  0  0  0  0  0  0  0  0  0  0  0
    8.2706    1.6073    0.0000 H   0  0  0  0  0  0  0  0  0  0  0  0
    7.2278    4.3929    0.0000 H   0  0  0  0  0  0  0  0  0  0  0  0
    6.2616    2.7776    0.0000 H   0  0  0  0  0  0  0  0  0  0  0  0
    6.8188    4.1672    0.0000 H   0  0  0  0  0  0  0  0  0  0  0  0
    9.6090    4.6272    0.0000 H   0  0  0  0  0  0  0  0  0  0  0  0
    9.0086    0.6387    0.0000 H   0  0  0  0  0  0  0  0  0  0  0  0
    7.2515    5.3937    0.0000 H   0  0  0  0  0  0  0  0  0  0  0  0
    5.3912    2.2832    0.0000 H   0  0  0  0  0  0  0  0  0  0  0  0
    5.9594    4.6806    0.0000 H   0  0  0  0  0  0  0  0  0  0  0  0
    7.0791   -1.1663    0.0000 H   0  0  0  0  0  0  0  0  0  0  0  0
    7.4776   -0.4760    0.0000 H   0  0  0  0  0  0  0  0  0  0  0  0
    5.6720   -3.2737    0.0000 H   0  0  0  0  0  0  0  0  0  0  0  0
    4.8059   -4.3937    0.0000 H   0  0  0  0  0  0  0  0  0  0  0  0
    5.1350   -1.9637    0.0000 H   0  0  0  0  0  0  0  0  0  0  0  0
    2.8660   -3.2737    0.0000 H   0  0  0  0  0  0  0  0  0  0  0  0
    3.4030   -1.9637    0.0000 H   0  0  0  0  0  0  0  0  0  0  0  0
    6.5380   -1.3937    0.0000 H   0  0  0  0  0  0  0  0  0  0  0  0
   11.4442   -1.2799    0.0000 H   0  0  0  0  0  0  0  0  0  0  0  0
   12.1704   -0.8791    0.0000 H   0  0  0  0  0  0  0  0  0  0  0  0
   12.7088    2.0677    0.0000 H   0  0  0  0  0  0  0  0  0  0  0  0
    1.9264   -1.9760    0.0000 H   0  0  0  0  0  0  0  0  0  0  0  0
    2.3249   -2.6663    0.0000 H   0  0  0  0  0  0  0  0  0  0  0  0
    5.4450   -0.0468    0.0000 H   0  0  0  0  0  0  0  0  0  0  0  0
    4.5981   -0.2737    0.0000 H   0  0  0  0  0  0  0  0  0  0  0  0
    4.8250   -1.1206    0.0000 H   0  0  0  0  0  0  0  0  0  0  0  0
    6.5380   -3.7737    0.0000 H   0  0  0  0  0  0  0  0  0  0  0  0
    3.7320   -5.3937    0.0000 H   0  0  0  0  0  0  0  0  0  0  0  0
    2.0000   -3.7737    0.0000 H   0  0  0  0  0  0  0  0  0  0  0  0
    2.0000   -0.7737    0.0000 H   0  0  0  0  0  0  0  0  0  0  0  0
 19  1  1  1  0  0  0
  1 30  1  0  0  0  0
 20  2  1  1  0  0  0
  2 49  1  0  0  0  0
 21  3  1  6  0  0  0
  3 50  1  0  0  0  0
 22  4  1  1  0  0  0
  4 51  1  0  0  0  0
  5 25  2  0  0  0  0
  6 28  1  0  0  0  0
  6 38  1  0  0  0  0
  7 29  1  0  0  0  0
  7 38  1  0  0  0  0
  8 34  1  0  0  0  0
  8 37  1  0  0  0  0
 34  9  1  1  0  0  0
  9 36  1  0  0  0  0
 10 27  1  0  0  0  0
 10 62  1  0  0  0  0
 11 30  2  0  0  0  0
 32 12  1  6  0  0  0
 12 68  1  0  0  0  0
 33 13  1  1  0  0  0
 13 69  1  0  0  0  0
 35 14  1  6  0  0  0
 14 70  1  0  0  0  0
 15 39  1  0  0  0  0
 15 71  1  0  0  0  0
 16 18  1  0  0  0  0
 16 25  1  0  0  0  0
 16 47  1  0  0  0  0
 17 18  1  0  0  0  0
 17 19  1  0  0  0  0
 17 23  1  0  0  0  0
 17 41  1  6  0  0  0
 18 20  1  0  0  0  0
 18 42  1  1  0  0  0
 19 21  1  0  0  0  0
 19 43  1  0  0  0  0
 20 22  1  0  0  0  0
 20 44  1  0  0  0  0
 21 22  1  0  0  0  0
 21 45  1  0  0  0  0
 22 46  1  0  0  0  0
 23 24  1  0  0  0  0
 23 26  2  0  0  0  0
 24 25  1  0  0  0  0
 24 27  2  0  0  0  0
 26 28  1  0  0  0  0
 26 48  1  0  0  0  0
 27 29  1  0  0  0  0
 28 29  2  0  0  0  0
 30 31  1  0  0  0  0
 31 36  1  0  0  0  0
 31 52  1  0  0  0  0
 31 53  1  0  0  0  0
 32 33  1  0  0  0  0
 32 34  1  0  0  0  0
 32 54  1  0  0  0  0
 33 35  1  0  0  0  0
 33 55  1  0  0  0  0
 34 56  1  0  0  0  0
 35 37  1  0  0  0  0
 35 57  1  0  0  0  0
 36 40  1  0  0  0  0
 36 59  1  0  0  0  0
 37 39  1  1  0  0  0
 37 58  1  0  0  0  0
 38 60  1  0  0  0  0
 38 61  1  0  0  0  0
 39 63  1  0  0  0  0
 39 64  1  0  0  0  0
 40 65  1  0  0  0  0
 40 66  1  0  0  0  0
 40 67  1  0  0  0  0
M  END
> <PUBCHEM_COMPOUND_CID>
10099596

> <PUBCHEM_COMPOUND_CANONICALIZED>
1

> <PUBCHEM_CACTVS_COMPLEXITY>
940

> <PUBCHEM_CACTVS_HBOND_ACCEPTOR>
15

> <PUBCHEM_CACTVS_HBOND_DONOR>
9

> <PUBCHEM_CACTVS_ROTATABLE_BOND>
7

> <PUBCHEM_CACTVS_SUBSKEYS>
AAADceB6PAAAAAAAAAAAAAAAAAAAASAAAAA8aIEAAAAAAEixAAAAHgAQCAAADTzxmAcyDoLABgCIAiHSGACCCAAkIAAAiIEOjMgfNzaGtRumcWtn9hWfuQf6/f/eoAABCAAYQABCgAIUADSgAAAAAAAAAA==

> <PUBCHEM_IUPAC_OPENEYE_NAME>
[(1R,2R,3S,4S,4aR,11bR)-2,3,4,7-tetrahydroxy-6-oxo-2,3,4,4a,5,11b-hexahydro-1H-[1,3]dioxolo[4,5-j]phenanthridin-1-yl] 3-[(2R,3R,4S,5S,6R)-3,4,5-trihydroxy-6-(hydroxymethyl)tetrahydropyran-2-yl]oxybutanoate

> <PUBCHEM_IUPAC_CAS_NAME>
3-[[(2R,3R,4S,5S,6R)-3,4,5-trihydroxy-6-(hydroxymethyl)-2-oxanyl]oxy]butanoic acid [(1R,2R,3S,4S,4aR,11bR)-2,3,4,7-tetrahydroxy-6-oxo-2,3,4,4a,5,11b-hexahydro-1H-[1,3]dioxolo[4,5-j]phenanthridin-1-yl] ester

> <PUBCHEM_IUPAC_NAME_MARKUP>
[(1<I>R</I>,2<I>R</I>,3<I>S</I>,4<I>S</I>,4<I>a</I><I>R</I>,11<I>b</I><I>R</I>)-2,3,4,7-tetrahydroxy-6-oxo-2,3,4,4<I>a</I>,5,11<I>b</I>-hexahydro-1<I>H</I>-[1,3]dioxolo[4,5-j]phenanthridin-1-yl] 3-[(2<I>R</I>,3<I>R</I>,4<I>S</I>,5<I>S</I>,6<I>R</I>)-3,4,5-trihydroxy-6-(hydroxymethyl)oxan-2-yl]oxybutanoate

> <PUBCHEM_IUPAC_NAME>
[(1R,2R,3S,4S,4aR,11bR)-2,3,4,7-tetrahydroxy-6-oxo-2,3,4,4a,5,11b-hexahydro-1H-[1,3]dioxolo[4,5-j]phenanthridin-1-yl] 3-[(2R,3R,4S,5S,6R)-3,4,5-trihydroxy-6-(hydroxymethyl)oxan-2-yl]oxybutanoate

> <PUBCHEM_IUPAC_SYSTEMATIC_NAME>
[(1R,2R,3S,4S,4aR,11bR)-2,3,4,7-tetrakis(oxidanyl)-6-oxidanylidene-2,3,4,4a,5,11b-hexahydro-1H-[1,3]dioxolo[4,5-j]phenanthridin-1-yl] 3-[(2R,3R,4S,5S,6R)-6-(hydroxymethyl)-3,4,5-tris(oxidanyl)oxan-2-yl]oxybutanoate

> <PUBCHEM_IUPAC_TRADITIONAL_NAME>
3-[(2R,3R,4S,5S,6R)-3,4,5-trihydroxy-6-methylol-tetrahydropyran-2-yl]oxybutyric acid [(1R,2R,3S,4S,4aR,11bR)-2,3,4,7-tetrahydroxy-6-keto-2,3,4,4a,5,11b-hexahydro-1H-[1,3]dioxolo[4,5-j]phenanthridin-1-yl] ester

> <PUBCHEM_IUPAC_INCHI>
InChI=1S/C24H31NO15/c1-6(38-24-20(34)17(31)14(28)9(4-26)39-24)2-10(27)40-22-11-7-3-8-21(37-5-36-8)15(29)12(7)23(35)25-13(11)16(30)18(32)19(22)33/h3,6,9,11,13-14,16-20,22,24,26,28-34H,2,4-5H2,1H3,(H,25,35)/t6?,9-,11-,13-,14-,16+,17+,18+,19-,20-,22-,24-/m1/s1

> <PUBCHEM_IUPAC_INCHIKEY>
QGRGVCXBYQUGHI-GKLNFMMTSA-N

> <PUBCHEM_XLOGP3_AA>
-2.9

> <PUBCHEM_EXACT_MASS>
573.16936928

> <PUBCHEM_MOLECULAR_FORMULA>
C24H31NO15

> <PUBCHEM_MOLECULAR_WEIGHT>
573.5

> <PUBCHEM_OPENEYE_CAN_SMILES>
CC(CC(=O)OC1C2C(C(C(C1O)O)O)NC(=O)C3=C(C4=C(C=C23)OCO4)O)OC5C(C(C(C(O5)CO)O)O)O

> <PUBCHEM_OPENEYE_ISO_SMILES>
CC(CC(=O)O[C@@H]1[C@H]2[C@H]([C@@H]([C@@H]([C@H]1O)O)O)NC(=O)C3=C(C4=C(C=C23)OCO4)O)O[C@H]5[C@@H]([C@H]([C@@H]([C@H](O5)CO)O)O)O

> <PUBCHEM_CACTVS_TPSA>
254

> <PUBCHEM_MONOISOTOPIC_WEIGHT>
573.16936928

> <PUBCHEM_TOTAL_CHARGE>
0

> <PUBCHEM_HEAVY_ATOM_COUNT>
40

> <PUBCHEM_ATOM_DEF_STEREO_COUNT>
11

> <PUBCHEM_ATOM_UDEF_STEREO_COUNT>
1

> <PUBCHEM_BOND_DEF_STEREO_COUNT>
0

> <PUBCHEM_BOND_UDEF_STEREO_COUNT>
0

> <PUBCHEM_ISOTOPIC_ATOM_COUNT>
0

> <PUBCHEM_COMPONENT_COUNT>
1

> <PUBCHEM_CACTVS_TAUTO_COUNT>
-1

> <PUBCHEM_COORDINATE_TYPE>
1
5
255

> <PUBCHEM_BONDANNOTATIONS>
19  1  5
32  12  6
33  13  5
35  14  6
17  41  6
18  42  5
20  2  5
23  24  8
23  26  8
24  27  8
26  28  8
27  29  8
28  29  8
21  3  6
36  40  3
37  39  5
22  4  5
34  9  5

$$$$
