 
  -OEChem-10192104392D

100107  0     1  0  0  0  0  0999 V2000
    9.0094    2.1488    0.0000 O   0  0  0  0  0  0  0  0  0  0  0  0
    5.5595    2.4904    0.0000 O   0  0  0  0  0  0  0  0  0  0  0  0
    7.3950   -0.8977    0.0000 O   0  0  0  0  0  0  0  0  0  0  0  0
    8.3200   -3.5287    0.0000 O   0  0  0  0  0  0  0  0  0  0  0  0
    8.3568    4.3564    0.0000 O   0  0  0  0  0  0  0  0  0  0  0  0
   10.0521   -3.5287    0.0000 O   0  0  0  0  0  0  0  0  0  0  0  0
   11.0149   -0.8667    0.0000 O   0  0  0  0  0  0  0  0  0  0  0  0
    5.9667   -1.0676    0.0000 O   0  0  0  0  0  0  0  0  0  0  0  0
    8.3200   -5.5287    0.0000 O   0  0  0  0  0  0  0  0  0  0  0  0
   10.0521   -6.5287    0.0000 O   0  0  0  0  0  0  0  0  0  0  0  0
   11.7841   -5.5287    0.0000 O   0  0  0  0  0  0  0  0  0  0  0  0
    2.9463   -0.0169    0.0000 O   0  0  0  0  0  0  0  0  0  0  0  0
   12.6501   -4.0287    0.0000 O   0  0  0  0  0  0  0  0  0  0  0  0
    6.2227    6.5168    0.0000 O   0  0  0  0  0  0  0  0  0  0  0  0
    5.3558   -5.4312    0.0000 O   0  0  0  0  0  0  0  0  0  0  0  0
    7.1957    1.6124    0.0000 C   0  0  2  0  0  0  0  0  0  0  0  0
    7.8008    3.5252    0.0000 C   0  0  1  0  0  0  0  0  0  0  0  0
    7.0011    2.5933    0.0000 C   0  0  1  0  0  0  0  0  0  0  0  0
    8.3570    0.6681    0.0000 C   0  0  0  0  0  0  0  0  0  0  0  0
    5.8744    0.9033    0.0000 C   0  0  0  0  0  0  0  0  0  0  0  0
    8.3449   -0.3734    0.0000 C   0  0  0  0  0  0  0  0  0  0  0  0
    8.3200   -2.5287    0.0000 C   0  0  2  0  0  0  0  0  0  0  0  0
    9.2211    1.1715    0.0000 C   0  0  0  0  0  0  0  0  0  0  0  0
    9.2450   -0.8977    0.0000 C   0  0  0  0  0  0  0  0  0  0  0  0
    9.2575   -1.9826    0.0000 C   0  0  0  0  0  0  0  0  0  0  0  0
    7.3825   -1.9826    0.0000 C   0  0  2  0  0  0  0  0  0  0  0  0
    5.1404    1.5825    0.0000 C   0  0  0  0  0  0  0  0  0  0  0  0
    6.8065    3.5742    0.0000 C   0  0  0  0  0  0  0  0  0  0  0  0
   10.1451   -0.3734    0.0000 C   0  0  0  0  0  0  0  0  0  0  0  0
   10.1330    0.6681    0.0000 C   0  0  0  0  0  0  0  0  0  0  0  0
    9.1860   -4.0287    0.0000 C   0  0  2  0  0  0  0  0  0  0  0  0
    9.1860   -5.0287    0.0000 C   0  0  1  0  0  0  0  0  0  0  0  0
    5.6597   -0.1160    0.0000 C   0  0  0  0  0  0  0  0  0  0  0  0
   10.0521   -5.5287    0.0000 C   0  0  2  0  0  0  0  0  0  0  0  0
   10.9181   -5.0287    0.0000 C   0  0  1  0  0  0  0  0  0  0  0  0
   10.9181   -4.0287    0.0000 C   0  0  1  0  0  0  0  0  0  0  0  0
    6.8758   -2.8448    0.0000 C   0  0  0  0  0  0  0  0  0  0  0  0
    4.1408    1.2895    0.0000 C   0  0  0  0  0  0  0  0  0  0  0  0
    5.8597    3.8961    0.0000 C   0  0  0  0  0  0  0  0  0  0  0  0
    7.5587    4.2331    0.0000 C   0  0  0  0  0  0  0  0  0  0  0  0
    4.6671   -0.4320    0.0000 C   0  0  0  0  0  0  0  0  0  0  0  0
    3.9026    0.2755    0.0000 C   0  0  0  0  0  0  0  0  0  0  0  0
   11.7841   -3.5287    0.0000 C   0  0  0  0  0  0  0  0  0  0  0  0
    5.8758   -2.8371    0.0000 C   0  0  0  0  0  0  0  0  0  0  0  0
    7.3691   -3.7146    0.0000 C   0  0  0  0  0  0  0  0  0  0  0  0
    5.6651    4.8770    0.0000 C   0  0  0  0  0  0  0  0  0  0  0  0
    7.3641    5.2140    0.0000 C   0  0  0  0  0  0  0  0  0  0  0  0
    6.4173    5.5359    0.0000 C   0  0  0  0  0  0  0  0  0  0  0  0
    5.3692   -3.6992    0.0000 C   0  0  0  0  0  0  0  0  0  0  0  0
    6.8625   -4.5768    0.0000 C   0  0  0  0  0  0  0  0  0  0  0  0
   11.8771   -0.3601    0.0000 C   0  0  0  0  0  0  0  0  0  0  0  0
    5.2960   -1.8094    0.0000 C   0  0  0  0  0  0  0  0  0  0  0  0
    5.8625   -4.5691    0.0000 C   0  0  0  0  0  0  0  0  0  0  0  0
    2.2149    0.6651    0.0000 C   0  0  0  0  0  0  0  0  0  0  0  0
    5.2759    6.8387    0.0000 C   0  0  0  0  0  0  0  0  0  0  0  0
    5.8491   -6.3011    0.0000 C   0  0  0  0  0  0  0  0  0  0  0  0
    7.3611    0.7786    0.0000 H   0  0  0  0  0  0  0  0  0  0  0  0
    7.3070    3.9001    0.0000 H   0  0  0  0  0  0  0  0  0  0  0  0
    7.7825   -2.8377    0.0000 H   0  0  0  0  0  0  0  0  0  0  0  0
    9.8671   -1.8695    0.0000 H   0  0  0  0  0  0  0  0  0  0  0  0
    9.4733   -2.5639    0.0000 H   0  0  0  0  0  0  0  0  0  0  0  0
    6.7852   -1.8164    0.0000 H   0  0  0  0  0  0  0  0  0  0  0  0
   10.6651    0.9864    0.0000 H   0  0  0  0  0  0  0  0  0  0  0  0
    9.1860   -3.4087    0.0000 H   0  0  0  0  0  0  0  0  0  0  0  0
    9.1860   -5.6487    0.0000 H   0  0  0  0  0  0  0  0  0  0  0  0
   10.5890   -5.8387    0.0000 H   0  0  0  0  0  0  0  0  0  0  0  0
    8.9755    4.3155    0.0000 H   0  0  0  0  0  0  0  0  0  0  0  0
   10.9181   -5.6487    0.0000 H   0  0  0  0  0  0  0  0  0  0  0  0
   10.9181   -3.4087    0.0000 H   0  0  0  0  0  0  0  0  0  0  0  0
    3.6906    1.7158    0.0000 H   0  0  0  0  0  0  0  0  0  0  0  0
    5.3934    3.4875    0.0000 H   0  0  0  0  0  0  0  0  0  0  0  0
    8.1456    4.0335    0.0000 H   0  0  0  0  0  0  0  0  0  0  0  0
    4.5323   -1.0372    0.0000 H   0  0  0  0  0  0  0  0  0  0  0  0
   11.3856   -3.0538    0.0000 H   0  0  0  0  0  0  0  0  0  0  0  0
   12.1826   -3.0538    0.0000 H   0  0  0  0  0  0  0  0  0  0  0  0
    5.5700   -2.2978    0.0000 H   0  0  0  0  0  0  0  0  0  0  0  0
    7.9891   -3.7194    0.0000 H   0  0  0  0  0  0  0  0  0  0  0  0
    5.0781    5.0766    0.0000 H   0  0  0  0  0  0  0  0  0  0  0  0
    7.8304    5.6226    0.0000 H   0  0  0  0  0  0  0  0  0  0  0  0
    8.3200   -6.1487    0.0000 H   0  0  0  0  0  0  0  0  0  0  0  0
   10.5890   -6.8387    0.0000 H   0  0  0  0  0  0  0  0  0  0  0  0
   11.7841   -6.1487    0.0000 H   0  0  0  0  0  0  0  0  0  0  0  0
    4.7492   -3.6944    0.0000 H   0  0  0  0  0  0  0  0  0  0  0  0
    7.1683   -5.1161    0.0000 H   0  0  0  0  0  0  0  0  0  0  0  0
   11.5629    0.1745    0.0000 H   0  0  0  0  0  0  0  0  0  0  0  0
   12.4116   -0.0459    0.0000 H   0  0  0  0  0  0  0  0  0  0  0  0
   12.1912   -0.8946    0.0000 H   0  0  0  0  0  0  0  0  0  0  0  0
    5.7559   -2.2252    0.0000 H   0  0  0  0  0  0  0  0  0  0  0  0
    4.8802   -2.2693    0.0000 H   0  0  0  0  0  0  0  0  0  0  0  0
    4.8362   -1.3936    0.0000 H   0  0  0  0  0  0  0  0  0  0  0  0
   13.1871   -3.7187    0.0000 H   0  0  0  0  0  0  0  0  0  0  0  0
    1.7921    0.2116    0.0000 H   0  0  0  0  0  0  0  0  0  0  0  0
    1.7615    1.0879    0.0000 H   0  0  0  0  0  0  0  0  0  0  0  0
    2.6378    1.1185    0.0000 H   0  0  0  0  0  0  0  0  0  0  0  0
    5.0764    6.2518    0.0000 H   0  0  0  0  0  0  0  0  0  0  0  0
    4.6890    7.0383    0.0000 H   0  0  0  0  0  0  0  0  0  0  0  0
    5.4755    7.4257    0.0000 H   0  0  0  0  0  0  0  0  0  0  0  0
    6.3884   -5.9952    0.0000 H   0  0  0  0  0  0  0  0  0  0  0  0
    6.1550   -6.8404    0.0000 H   0  0  0  0  0  0  0  0  0  0  0  0
    5.3098   -6.6069    0.0000 H   0  0  0  0  0  0  0  0  0  0  0  0
  1 18  1  0  0  0  0
  1 23  1  0  0  0  0
  2 18  1  0  0  0  0
  2 27  1  0  0  0  0
  3 21  1  0  0  0  0
  3 26  1  0  0  0  0
 22  4  1  1  0  0  0
 31  4  1  6  0  0  0
 17  5  1  1  0  0  0
  5 67  1  0  0  0  0
  6 31  1  0  0  0  0
  6 36  1  0  0  0  0
  7 29  1  0  0  0  0
  7 51  1  0  0  0  0
  8 33  1  0  0  0  0
  8 52  1  0  0  0  0
 32  9  1  1  0  0  0
  9 80  1  0  0  0  0
 34 10  1  6  0  0  0
 10 81  1  0  0  0  0
 35 11  1  1  0  0  0
 11 82  1  0  0  0  0
 12 42  1  0  0  0  0
 12 54  1  0  0  0  0
 13 43  1  0  0  0  0
 13 91  1  0  0  0  0
 14 48  1  0  0  0  0
 14 55  1  0  0  0  0
 15 53  1  0  0  0  0
 15 56  1  0  0  0  0
 16 17  1  0  0  0  0
 16 19  1  0  0  0  0
 16 20  1  0  0  0  0
 16 57  1  1  0  0  0
 17 18  1  0  0  0  0
 17 58  1  0  0  0  0
 18 28  1  6  0  0  0
 19 21  2  0  0  0  0
 19 23  1  0  0  0  0
 20 27  2  0  0  0  0
 20 33  1  0  0  0  0
 21 24  1  0  0  0  0
 22 25  1  0  0  0  0
 22 26  1  0  0  0  0
 22 59  1  0  0  0  0
 23 30  2  0  0  0  0
 24 25  1  0  0  0  0
 24 29  2  0  0  0  0
 25 60  1  0  0  0  0
 25 61  1  0  0  0  0
 26 37  1  6  0  0  0
 26 62  1  0  0  0  0
 27 38  1  0  0  0  0
 28 39  2  0  0  0  0
 28 40  1  0  0  0  0
 29 30  1  0  0  0  0
 30 63  1  0  0  0  0
 31 32  1  0  0  0  0
 31 64  1  0  0  0  0
 32 34  1  0  0  0  0
 32 65  1  0  0  0  0
 33 41  2  0  0  0  0
 34 35  1  0  0  0  0
 34 66  1  0  0  0  0
 35 36  1  0  0  0  0
 35 68  1  0  0  0  0
 36 43  1  6  0  0  0
 36 69  1  0  0  0  0
 37 44  2  0  0  0  0
 37 45  1  0  0  0  0
 38 42  2  0  0  0  0
 38 70  1  0  0  0  0
 39 46  1  0  0  0  0
 39 71  1  0  0  0  0
 40 47  2  0  0  0  0
 40 72  1  0  0  0  0
 41 42  1  0  0  0  0
 41 73  1  0  0  0  0
 43 74  1  0  0  0  0
 43 75  1  0  0  0  0
 44 49  1  0  0  0  0
 44 76  1  0  0  0  0
 45 50  2  0  0  0  0
 45 77  1  0  0  0  0
 46 48  2  0  0  0  0
 46 78  1  0  0  0  0
 47 48  1  0  0  0  0
 47 79  1  0  0  0  0
 49 53  2  0  0  0  0
 49 83  1  0  0  0  0
 50 53  1  0  0  0  0
 50 84  1  0  0  0  0
 51 85  1  0  0  0  0
 51 86  1  0  0  0  0
 51 87  1  0  0  0  0
 52 88  1  0  0  0  0
 52 89  1  0  0  0  0
 52 90  1  0  0  0  0
 54 92  1  0  0  0  0
 54 93  1  0  0  0  0
 54 94  1  0  0  0  0
 55 95  1  0  0  0  0
 55 96  1  0  0  0  0
 55 97  1  0  0  0  0
 56 98  1  0  0  0  0
 56 99  1  0  0  0  0
 56100  1  0  0  0  0
M  END
> <PUBCHEM_COMPOUND_CID>
72703241

> <PUBCHEM_COMPOUND_CANONICALIZED>
1

> <PUBCHEM_CACTVS_COMPLEXITY>
1280

> <PUBCHEM_CACTVS_HBOND_ACCEPTOR>
15

> <PUBCHEM_CACTVS_HBOND_DONOR>
5

> <PUBCHEM_CACTVS_ROTATABLE_BOND>
10

> <PUBCHEM_CACTVS_SUBSKEYS>
AAADcfB8PAAAAAAAAAAAAAAAAAAAAAAAAAA0aNGiAAASAACRVAAAGgAACAAADRSwmAMyDoAABgCAAiBCAAACCAAgIAAIiAAGCIgdNyKEMRqieCClwBUPqAfA4PwOoAACCAAIAABAAAQQABAAAAAAAAAAAA==

> <PUBCHEM_IUPAC_OPENEYE_NAME>
(2R,3S,4S,5R,6R)-2-(hydroxymethyl)-6-[[(1S,5S,6R,13R,21S)-21-hydroxy-9,17,19-trimethoxy-5,13-bis(4-methoxyphenyl)-4,12,14-trioxapentacyclo[11.7.1.02,11.03,8.015,20]henicosa-2,8,10,15(20),16,18-hexaen-6-yl]oxy]tetrahydropyran-3,4,5-triol

> <PUBCHEM_IUPAC_CAS_NAME>
(2R,3S,4S,5R,6R)-2-(hydroxymethyl)-6-[[(1S,5S,6R,13R,21S)-21-hydroxy-9,17,19-trimethoxy-5,13-bis(4-methoxyphenyl)-4,12,14-trioxapentacyclo[11.7.1.02,11.03,8.015,20]heneicosa-2,8,10,15(20),16,18-hexaen-6-yl]oxy]oxane-3,4,5-triol

> <PUBCHEM_IUPAC_NAME_MARKUP>
(2<I>R</I>,3<I>S</I>,4<I>S</I>,5<I>R</I>,6<I>R</I>)-2-(hydroxymethyl)-6-[[(1<I>S</I>,5<I>S</I>,6<I>R</I>,13<I>R</I>,21<I>S</I>)-21-hydroxy-9,17,19-trimethoxy-5,13-bis(4-methoxyphenyl)-4,12,14-trioxapentacyclo[11.7.1.0<SUP>2,11</SUP>.0<SUP>3,8</SUP>.0<SUP>15,20</SUP>]henicosa-2,8,10,15(20),16,18-hexaen-6-yl]oxy]oxane-3,4,5-triol

> <PUBCHEM_IUPAC_NAME>
(2R,3S,4S,5R,6R)-2-(hydroxymethyl)-6-[[(1S,5S,6R,13R,21S)-21-hydroxy-9,17,19-trimethoxy-5,13-bis(4-methoxyphenyl)-4,12,14-trioxapentacyclo[11.7.1.02,11.03,8.015,20]henicosa-2,8,10,15(20),16,18-hexaen-6-yl]oxy]oxane-3,4,5-triol

> <PUBCHEM_IUPAC_SYSTEMATIC_NAME>
(2R,3S,4S,5R,6R)-2-(hydroxymethyl)-6-[[(1S,5S,6R,13R,21S)-9,17,19-trimethoxy-5,13-bis(4-methoxyphenyl)-21-oxidanyl-4,12,14-trioxapentacyclo[11.7.1.02,11.03,8.015,20]henicosa-2,8,10,15(20),16,18-hexaen-6-yl]oxy]oxane-3,4,5-triol

> <PUBCHEM_IUPAC_TRADITIONAL_NAME>
(2R,3R,4S,5S,6R)-2-[[(1S,5S,6R,13R,21S)-21-hydroxy-9,17,19-trimethoxy-5,13-bis(4-methoxyphenyl)-4,12,14-trioxapentacyclo[11.7.1.02,11.03,8.015,20]heneicosa-2,8,10,15(20),16,18-hexaen-6-yl]oxy]-6-methylol-tetrahydropyran-3,4,5-triol

> <PUBCHEM_IUPAC_INCHI>
InChI=1S/C41H44O15/c1-47-21-10-6-19(7-11-21)37-29(52-40-36(45)35(44)34(43)30(18-42)53-40)16-24-25(50-4)17-28-32(38(24)54-37)33-31-26(51-5)14-23(49-3)15-27(31)55-41(56-28,39(33)46)20-8-12-22(48-2)13-9-20/h6-15,17,29-30,33-37,39-40,42-46H,16,18H2,1-5H3/t29-,30-,33+,34-,35+,36-,37+,39+,40-,41-/m1/s1

> <PUBCHEM_IUPAC_INCHIKEY>
VULBPQRWXUZHNP-GGOZFWTISA-N

> <PUBCHEM_XLOGP3_AA>
3.1

> <PUBCHEM_EXACT_MASS>
776.26802069

> <PUBCHEM_MOLECULAR_FORMULA>
C41H44O15

> <PUBCHEM_MOLECULAR_WEIGHT>
776.8

> <PUBCHEM_OPENEYE_CAN_SMILES>
COC1=CC=C(C=C1)C2C(CC3=C(C=C4C(=C3O2)C5C(C(O4)(OC6=C5C(=CC(=C6)OC)OC)C7=CC=C(C=C7)OC)O)OC)OC8C(C(C(C(O8)CO)O)O)O

> <PUBCHEM_OPENEYE_ISO_SMILES>
COC1=CC=C(C=C1)[C@H]2[C@@H](CC3=C(C=C4C(=C3O2)[C@H]5[C@@H]([C@@](O4)(OC6=C5C(=CC(=C6)OC)OC)C7=CC=C(C=C7)OC)O)OC)O[C@H]8[C@@H]([C@H]([C@@H]([C@H](O8)CO)O)O)O

> <PUBCHEM_CACTVS_TPSA>
193

> <PUBCHEM_MONOISOTOPIC_WEIGHT>
776.26802069

> <PUBCHEM_TOTAL_CHARGE>
0

> <PUBCHEM_HEAVY_ATOM_COUNT>
56

> <PUBCHEM_ATOM_DEF_STEREO_COUNT>
10

> <PUBCHEM_ATOM_UDEF_STEREO_COUNT>
0

> <PUBCHEM_BOND_DEF_STEREO_COUNT>
0

> <PUBCHEM_BOND_UDEF_STEREO_COUNT>
0

> <PUBCHEM_ISOTOPIC_ATOM_COUNT>
0

> <PUBCHEM_COMPONENT_COUNT>
1

> <PUBCHEM_CACTVS_TAUTO_COUNT>
-1

> <PUBCHEM_COORDINATE_TYPE>
1
5
255

> <PUBCHEM_BONDANNOTATIONS>
34  10  6
35  11  5
16  57  5
18  28  6
19  21  8
19  23  8
20  27  8
20  33  8
21  24  8
23  30  8
24  29  8
26  37  6
27  38  8
28  39  8
28  40  8
29  30  8
33  41  8
36  43  6
37  44  8
37  45  8
38  42  8
39  46  8
22  4  5
31  4  6
40  47  8
41  42  8
44  49  8
45  50  8
46  48  8
47  48  8
49  53  8
17  5  5
50  53  8
32  9  5

$$$$
