 
  -OEChem-10192104092D

 85 87  0     1  0  0  0  0  0999 V2000
    6.0000    0.1340    0.0000 O   0  0  0  0  0  0  0  0  0  0  0  0
    9.0981   -0.5000    0.0000 O   0  0  0  0  0  0  0  0  0  0  0  0
   10.8301   -0.5000    0.0000 O   0  0  0  0  0  0  0  0  0  0  0  0
    7.3660    1.5000    0.0000 O   0  0  0  0  0  0  0  0  0  0  0  0
    6.5000   -1.0000    0.0000 O   0  0  0  0  0  0  0  0  0  0  0  0
    4.5000    2.7320    0.0000 O   0  0  0  0  0  0  0  0  0  0  0  0
    7.7320   -2.8660    0.0000 O   0  0  0  0  0  0  0  0  0  0  0  0
    9.0981   -3.5000    0.0000 O   0  0  0  0  0  0  0  0  0  0  0  0
   10.8301   -2.5000    0.0000 O   0  0  0  0  0  0  0  0  0  0  0  0
    5.0000   -1.5981    0.0000 O   0  0  0  0  0  0  0  0  0  0  0  0
    9.9641    2.0000    0.0000 O   0  0  0  0  0  0  0  0  0  0  0  0
    2.7680   -0.7321    0.0000 O   0  0  0  0  0  0  0  0  0  0  0  0
   12.5622    0.5000    0.0000 O   0  0  0  0  0  0  0  0  0  0  0  0
   12.5622    2.5000    0.0000 O   0  0  0  0  0  0  0  0  0  0  0  0
   10.8301    3.5000    0.0000 O   0  0  0  0  0  0  0  0  0  0  0  0
    2.7679   -2.7320    0.0000 O   0  0  0  0  0  0  0  0  0  0  0  0
    8.2320    1.0000    0.0000 O   0  0  0  0  0  0  0  0  0  0  0  0
    3.5000    2.7320    0.0000 O   0  0  0  0  0  0  0  0  0  0  0  0
    3.5000    1.0000    0.0000 N   0  0  0  0  0  0  0  0  0  0  0  0
    6.5000   -2.0000    0.0000 N   0  0  0  0  0  0  0  0  0  0  0  0
    6.5000    1.0000    0.0000 C   0  0  2  0  0  0  0  0  0  0  0  0
    4.5000    1.0000    0.0000 C   0  0  1  0  0  0  0  0  0  0  0  0
    5.0000    0.1340    0.0000 C   0  0  2  0  0  0  0  0  0  0  0  0
    7.3660    0.5000    0.0000 C   0  0  0  0  0  0  0  0  0  0  0  0
    6.0000    1.8660    0.0000 C   0  0  0  0  0  0  0  0  0  0  0  0
    8.2320   -1.0000    0.0000 C   0  0  2  0  0  0  0  0  0  0  0  0
    7.3660   -0.5000    0.0000 C   0  0  3  0  0  0  0  0  0  0  0  0
    5.0000    1.8660    0.0000 C   0  0  2  0  0  0  0  0  0  0  0  0
    8.2320   -2.0000    0.0000 C   0  0  1  0  0  0  0  0  0  0  0  0
    9.0981   -2.5000    0.0000 C   0  0  1  0  0  0  0  0  0  0  0  0
    9.9641   -1.0000    0.0000 C   0  0  1  0  0  0  0  0  0  0  0  0
    9.9641   -2.0000    0.0000 C   0  0  2  0  0  0  0  0  0  0  0  0
    4.5000   -0.7321    0.0000 C   0  0  1  0  0  0  0  0  0  0  0  0
   10.8301    0.5000    0.0000 C   0  0  1  0  0  0  0  0  0  0  0  0
    3.6339   -1.2320    0.0000 C   0  0  1  0  0  0  0  0  0  0  0  0
   11.6962    1.0000    0.0000 C   0  0  1  0  0  0  0  0  0  0  0  0
    9.9641    1.0000    0.0000 C   0  0  1  0  0  0  0  0  0  0  0  0
   11.6962    2.0000    0.0000 C   0  0  2  0  0  0  0  0  0  0  0  0
   10.8301    2.5000    0.0000 C   0  0  2  0  0  0  0  0  0  0  0  0
    3.6339   -2.2320    0.0000 C   0  0  0  0  0  0  0  0  0  0  0  0
    9.0981    0.5000    0.0000 C   0  0  0  0  0  0  0  0  0  0  0  0
    3.0000    1.8660    0.0000 C   0  0  0  0  0  0  0  0  0  0  0  0
    2.0000    1.8660    0.0000 C   0  0  0  0  0  0  0  0  0  0  0  0
    4.1900    0.4631    0.0000 H   0  0  0  0  0  0  0  0  0  0  0  0
    5.4250    0.8701    0.0000 H   0  0  0  0  0  0  0  0  0  0  0  0
    7.9766    0.3923    0.0000 H   0  0  0  0  0  0  0  0  0  0  0  0
    7.5781    1.0826    0.0000 H   0  0  0  0  0  0  0  0  0  0  0  0
    6.5826    2.0781    0.0000 H   0  0  0  0  0  0  0  0  0  0  0  0
    5.8923    2.4766    0.0000 H   0  0  0  0  0  0  0  0  0  0  0  0
    8.2320   -0.3800    0.0000 H   0  0  0  0  0  0  0  0  0  0  0  0
    7.3660   -1.1200    0.0000 H   0  0  0  0  0  0  0  0  0  0  0  0
    4.3800    1.8660    0.0000 H   0  0  0  0  0  0  0  0  0  0  0  0
    7.6332   -1.8395    0.0000 H   0  0  0  0  0  0  0  0  0  0  0  0
    8.5611   -2.8100    0.0000 H   0  0  0  0  0  0  0  0  0  0  0  0
   10.5010   -1.3100    0.0000 H   0  0  0  0  0  0  0  0  0  0  0  0
    9.9641   -2.6200    0.0000 H   0  0  0  0  0  0  0  0  0  0  0  0
    5.1200   -0.7321    0.0000 H   0  0  0  0  0  0  0  0  0  0  0  0
   10.2932    0.1900    0.0000 H   0  0  0  0  0  0  0  0  0  0  0  0
    3.1900    0.4631    0.0000 H   0  0  0  0  0  0  0  0  0  0  0  0
    3.6339   -0.6120    0.0000 H   0  0  0  0  0  0  0  0  0  0  0  0
   11.6962    0.3800    0.0000 H   0  0  0  0  0  0  0  0  0  0  0  0
    9.4272    1.3100    0.0000 H   0  0  0  0  0  0  0  0  0  0  0  0
    7.3660    2.1200    0.0000 H   0  0  0  0  0  0  0  0  0  0  0  0
   12.2331    1.6900    0.0000 H   0  0  0  0  0  0  0  0  0  0  0  0
    4.8100    3.2690    0.0000 H   0  0  0  0  0  0  0  0  0  0  0  0
    8.0421   -3.4030    0.0000 H   0  0  0  0  0  0  0  0  0  0  0  0
   10.2932    2.8100    0.0000 H   0  0  0  0  0  0  0  0  0  0  0  0
    9.6350   -3.8100    0.0000 H   0  0  0  0  0  0  0  0  0  0  0  0
   11.3671   -2.1900    0.0000 H   0  0  0  0  0  0  0  0  0  0  0  0
    4.6900   -2.1350    0.0000 H   0  0  0  0  0  0  0  0  0  0  0  0
    3.8460   -2.8146    0.0000 H   0  0  0  0  0  0  0  0  0  0  0  0
    4.2445   -2.1244    0.0000 H   0  0  0  0  0  0  0  0  0  0  0  0
    8.6996    0.0251    0.0000 H   0  0  0  0  0  0  0  0  0  0  0  0
    9.4966    0.0251    0.0000 H   0  0  0  0  0  0  0  0  0  0  0  0
    2.2310   -1.0420    0.0000 H   0  0  0  0  0  0  0  0  0  0  0  0
    5.9631   -2.3100    0.0000 H   0  0  0  0  0  0  0  0  0  0  0  0
    6.8100   -2.5369    0.0000 H   0  0  0  0  0  0  0  0  0  0  0  0
   13.0991    0.8100    0.0000 H   0  0  0  0  0  0  0  0  0  0  0  0
   12.5622    3.1200    0.0000 H   0  0  0  0  0  0  0  0  0  0  0  0
    2.0000    2.4860    0.0000 H   0  0  0  0  0  0  0  0  0  0  0  0
    1.3800    1.8660    0.0000 H   0  0  0  0  0  0  0  0  0  0  0  0
    2.0000    1.2460    0.0000 H   0  0  0  0  0  0  0  0  0  0  0  0
   10.2932    3.8100    0.0000 H   0  0  0  0  0  0  0  0  0  0  0  0
    2.7679   -3.3520    0.0000 H   0  0  0  0  0  0  0  0  0  0  0  0
    8.2320    1.6200    0.0000 H   0  0  0  0  0  0  0  0  0  0  0  0
  1 21  1  0  0  0  0
  1 23  1  0  0  0  0
  2 26  1  0  0  0  0
  2 31  1  0  0  0  0
 31  3  1  1  0  0  0
 34  3  1  6  0  0  0
 21  4  1  6  0  0  0
  4 63  1  0  0  0  0
  5 20  1  0  0  0  0
  5 27  1  0  0  0  0
 28  6  1  1  0  0  0
  6 65  1  0  0  0  0
 29  7  1  1  0  0  0
  7 66  1  0  0  0  0
 30  8  1  1  0  0  0
  8 68  1  0  0  0  0
 32  9  1  6  0  0  0
  9 69  1  0  0  0  0
 33 10  1  6  0  0  0
 10 70  1  0  0  0  0
 11 37  1  0  0  0  0
 11 39  1  0  0  0  0
 35 12  1  1  0  0  0
 12 75  1  0  0  0  0
 36 13  1  1  0  0  0
 13 78  1  0  0  0  0
 38 14  1  6  0  0  0
 14 79  1  0  0  0  0
 39 15  1  6  0  0  0
 15 83  1  0  0  0  0
 16 40  1  0  0  0  0
 16 84  1  0  0  0  0
 17 41  1  0  0  0  0
 17 85  1  0  0  0  0
 18 42  2  0  0  0  0
 22 19  1  6  0  0  0
 19 42  1  0  0  0  0
 19 59  1  0  0  0  0
 20 76  1  0  0  0  0
 20 77  1  0  0  0  0
 21 24  1  0  0  0  0
 21 25  1  0  0  0  0
 22 23  1  0  0  0  0
 22 28  1  0  0  0  0
 22 44  1  0  0  0  0
 23 33  1  0  0  0  0
 23 45  1  6  0  0  0
 24 27  1  0  0  0  0
 24 46  1  0  0  0  0
 24 47  1  0  0  0  0
 25 28  1  0  0  0  0
 25 48  1  0  0  0  0
 25 49  1  0  0  0  0
 26 27  1  1  0  0  0
 26 29  1  0  0  0  0
 26 50  1  0  0  0  0
 27 51  1  0  0  0  0
 28 52  1  0  0  0  0
 29 30  1  0  0  0  0
 29 53  1  0  0  0  0
 30 32  1  0  0  0  0
 30 54  1  0  0  0  0
 31 32  1  0  0  0  0
 31 55  1  0  0  0  0
 32 56  1  0  0  0  0
 33 35  1  0  0  0  0
 33 57  1  0  0  0  0
 34 36  1  0  0  0  0
 34 37  1  0  0  0  0
 34 58  1  0  0  0  0
 35 40  1  0  0  0  0
 35 60  1  0  0  0  0
 36 38  1  0  0  0  0
 36 61  1  0  0  0  0
 37 41  1  1  0  0  0
 37 62  1  0  0  0  0
 38 39  1  0  0  0  0
 38 64  1  0  0  0  0
 39 67  1  0  0  0  0
 40 71  1  0  0  0  0
 40 72  1  0  0  0  0
 41 73  1  0  0  0  0
 41 74  1  0  0  0  0
 42 43  1  0  0  0  0
 43 80  1  0  0  0  0
 43 81  1  0  0  0  0
 43 82  1  0  0  0  0
M  END
> <PUBCHEM_COMPOUND_CID>
123708202

> <PUBCHEM_COMPOUND_CANONICALIZED>
1

> <PUBCHEM_CACTVS_COMPLEXITY>
906

> <PUBCHEM_CACTVS_HBOND_ACCEPTOR>
19

> <PUBCHEM_CACTVS_HBOND_DONOR>
14

> <PUBCHEM_CACTVS_ROTATABLE_BOND>
11

> <PUBCHEM_CACTVS_SUBSKEYS>
AAADcfB7PgAAAAAAAAAAAAAAAAAAAAAAAAAkSJAAAAAAAAAAAAAAHgAUCAAACDzxgAcCCALABgAIAAEQEAAAAAAAAAAAAIAIAAATEAIAgAAnQAAHFgCXAAHw8K8AAAAAAAAAAAAAAAAAAAAAAAAAAAAAAA==

> <PUBCHEM_IUPAC_OPENEYE_NAME>
N-[(2R,3R,4S,6S)-6-[2-aminooxy-2-[(2S,3R,4S,5R,6R)-3,4,5-trihydroxy-6-[(2R,3S,4R,5R,6S)-4,5,6-trihydroxy-2-(hydroxymethyl)tetrahydropyran-3-yl]oxy-tetrahydropyran-2-yl]ethyl]-4,6-dihydroxy-2-[(1R,2R)-1,2,3-trihydroxypropyl]tetrahydropyran-3-yl]acetamide

> <PUBCHEM_IUPAC_CAS_NAME>
N-[(2R,3R,4S,6S)-6-[2-aminooxy-2-[(2S,3R,4S,5R,6R)-3,4,5-trihydroxy-6-[[(2R,3S,4R,5R,6S)-4,5,6-trihydroxy-2-(hydroxymethyl)-3-oxanyl]oxy]-2-oxanyl]ethyl]-4,6-dihydroxy-2-[(1R,2R)-1,2,3-trihydroxypropyl]-3-oxanyl]acetamide

> <PUBCHEM_IUPAC_NAME_MARKUP>
<I>N</I>-[(2<I>R</I>,3<I>R</I>,4<I>S</I>,6<I>S</I>)-6-[2-aminooxy-2-[(2<I>S</I>,3<I>R</I>,4<I>S</I>,5<I>R</I>,6<I>R</I>)-3,4,5-trihydroxy-6-[(2<I>R</I>,3<I>S</I>,4<I>R</I>,5<I>R</I>,6<I>S</I>)-4,5,6-trihydroxy-2-(hydroxymethyl)oxan-3-yl]oxyoxan-2-yl]ethyl]-4,6-dihydroxy-2-[(1<I>R</I>,2<I>R</I>)-1,2,3-trihydroxypropyl]oxan-3-yl]acetamide

> <PUBCHEM_IUPAC_NAME>
N-[(2R,3R,4S,6S)-6-[2-aminooxy-2-[(2S,3R,4S,5R,6R)-3,4,5-trihydroxy-6-[(2R,3S,4R,5R,6S)-4,5,6-trihydroxy-2-(hydroxymethyl)oxan-3-yl]oxyoxan-2-yl]ethyl]-4,6-dihydroxy-2-[(1R,2R)-1,2,3-trihydroxypropyl]oxan-3-yl]acetamide

> <PUBCHEM_IUPAC_SYSTEMATIC_NAME>
N-[(2R,3R,4S,6S)-6-[2-azanyloxy-2-[(2S,3R,4S,5R,6R)-6-[(2R,3S,4R,5R,6S)-2-(hydroxymethyl)-4,5,6-tris(oxidanyl)oxan-3-yl]oxy-3,4,5-tris(oxidanyl)oxan-2-yl]ethyl]-4,6-bis(oxidanyl)-2-[(1R,2R)-1,2,3-tris(oxidanyl)propyl]oxan-3-yl]ethanamide

> <PUBCHEM_IUPAC_TRADITIONAL_NAME>
N-[(2R,3R,4S,6S)-6-[2-aminooxy-2-[(2S,3R,4S,5R,6R)-3,4,5-trihydroxy-6-[(2R,3S,4R,5R,6S)-4,5,6-trihydroxy-2-methylol-tetrahydropyran-3-yl]oxy-tetrahydropyran-2-yl]ethyl]-4,6-dihydroxy-2-[(1R,2R)-1,2,3-trihydroxypropyl]tetrahydropyran-3-yl]acetamide

> <PUBCHEM_IUPAC_INCHI>
InChI=1S/C23H42N2O18/c1-6(28)25-11-7(29)2-23(38,42-20(11)12(31)8(30)4-26)3-9(43-24)18-14(33)13(32)17(36)22(40-18)41-19-10(5-27)39-21(37)16(35)15(19)34/h7-22,26-27,29-38H,2-5,24H2,1H3,(H,25,28)/t7-,8+,9?,10+,11+,12+,13-,14+,15+,16+,17+,18+,19+,20+,21-,22-,23-/m0/s1

> <PUBCHEM_IUPAC_INCHIKEY>
VMJAKPUPWKKZSR-MZXYVLHMSA-N

> <PUBCHEM_XLOGP3_AA>
-8.3

> <PUBCHEM_EXACT_MASS>
634.24326249

> <PUBCHEM_MOLECULAR_FORMULA>
C23H42N2O18

> <PUBCHEM_MOLECULAR_WEIGHT>
634.6

> <PUBCHEM_OPENEYE_CAN_SMILES>
CC(=O)NC1C(CC(OC1C(C(CO)O)O)(CC(C2C(C(C(C(O2)OC3C(OC(C(C3O)O)O)CO)O)O)O)ON)O)O

> <PUBCHEM_OPENEYE_ISO_SMILES>
CC(=O)N[C@@H]1[C@H](C[C@](O[C@H]1[C@@H]([C@@H](CO)O)O)(CC([C@@H]2[C@@H]([C@@H]([C@H]([C@@H](O2)O[C@@H]3[C@H](O[C@@H]([C@@H]([C@H]3O)O)O)CO)O)O)O)ON)O)O

> <PUBCHEM_CACTVS_TPSA>
344

> <PUBCHEM_MONOISOTOPIC_WEIGHT>
634.24326249

> <PUBCHEM_TOTAL_CHARGE>
0

> <PUBCHEM_HEAVY_ATOM_COUNT>
43

> <PUBCHEM_ATOM_DEF_STEREO_COUNT>
16

> <PUBCHEM_ATOM_UDEF_STEREO_COUNT>
1

> <PUBCHEM_BOND_DEF_STEREO_COUNT>
0

> <PUBCHEM_BOND_UDEF_STEREO_COUNT>
0

> <PUBCHEM_ISOTOPIC_ATOM_COUNT>
0

> <PUBCHEM_COMPONENT_COUNT>
1

> <PUBCHEM_CACTVS_TAUTO_COUNT>
-1

> <PUBCHEM_COORDINATE_TYPE>
1
5
255

> <PUBCHEM_BONDANNOTATIONS>
33  10  6
35  12  5
36  13  5
38  14  6
39  15  6
22  19  6
23  45  6
27  24  3
26  27  5
31  3  5
34  3  6
37  41  5
21  4  6
28  6  5
29  7  5
30  8  5
32  9  6

$$$$
