 
  -OEChem-10192104372D

 69 71  0     1  0  0  0  0  0999 V2000
    6.0010    2.1550    0.0000 O   0  0  0  0  0  0  0  0  0  0  0  0
    8.5991    0.6550    0.0000 O   0  0  0  0  0  0  0  0  0  0  0  0
    6.8671   -0.3450    0.0000 O   0  0  0  0  0  0  0  0  0  0  0  0
    5.1350   -0.3450    0.0000 O   0  0  0  0  0  0  0  0  0  0  0  0
    9.4651    2.1550    0.0000 O   0  0  0  0  0  0  0  0  0  0  0  0
    6.8671   -2.3450    0.0000 O   0  0  0  0  0  0  0  0  0  0  0  0
   10.3312   -0.3450    0.0000 O   0  0  0  0  0  0  0  0  0  0  0  0
    4.2690    1.1550    0.0000 O   0  0  0  0  0  0  0  0  0  0  0  0
    5.1350   -3.3450    0.0000 O   0  0  0  0  0  0  0  0  0  0  0  0
   12.0632    0.6550    0.0000 O   0  0  0  0  0  0  0  0  0  0  0  0
    3.4030   -2.3450    0.0000 O   0  0  0  0  0  0  0  0  0  0  0  0
   12.0632    2.6550    0.0000 O   0  0  0  0  0  0  0  0  0  0  0  0
    2.5369   -0.8450    0.0000 O   0  0  0  0  0  0  0  0  0  0  0  0
    7.7331    1.1550    0.0000 C   0  0  1  0  0  0  0  0  0  0  0  0
    6.8671    0.6550    0.0000 C   0  0  1  0  0  0  0  0  0  0  0  0
    7.7331    2.1550    0.0000 C   0  0  3  0  0  0  0  0  0  0  0  0
    6.0010    1.1550    0.0000 C   0  0  3  0  0  0  0  0  0  0  0  0
    6.8671    2.6550    0.0000 C   0  0  2  0  0  0  0  0  0  0  0  0
    9.4651    1.1550    0.0000 C   0  0  2  0  0  0  0  0  0  0  0  0
    6.0010   -0.8450    0.0000 C   0  0  2  0  0  0  0  0  0  0  0  0
    8.5991    2.6550    0.0000 C   0  0  0  0  0  0  0  0  0  0  0  0
    6.0010   -1.8450    0.0000 C   0  0  3  0  0  0  0  0  0  0  0  0
   10.3312    0.6550    0.0000 C   0  0  2  0  0  0  0  0  0  0  0  0
    5.1350    0.6550    0.0000 C   0  0  0  0  0  0  0  0  0  0  0  0
    5.1350   -2.3450    0.0000 C   0  0  2  0  0  0  0  0  0  0  0  0
   11.1972    1.1550    0.0000 C   0  0  3  0  0  0  0  0  0  0  0  0
    6.8671    3.6550    0.0000 C   0  0  0  0  0  0  0  0  0  0  0  0
    4.2690   -1.8450    0.0000 C   0  0  2  0  0  0  0  0  0  0  0  0
    4.2690   -0.8450    0.0000 C   0  0  3  0  0  0  0  0  0  0  0  0
   11.1972    2.1550    0.0000 C   0  0  1  0  0  0  0  0  0  0  0  0
   10.3312    2.6550    0.0000 C   0  0  3  0  0  0  0  0  0  0  0  0
    3.4030   -0.3450    0.0000 C   0  0  0  0  0  0  0  0  0  0  0  0
   10.3312    3.6550    0.0000 C   0  0  0  0  0  0  0  0  0  0  0  0
    8.2700    1.4650    0.0000 H   0  0  0  0  0  0  0  0  0  0  0  0
    7.4040    0.3450    0.0000 H   0  0  0  0  0  0  0  0  0  0  0  0
    7.7331    2.7750    0.0000 H   0  0  0  0  0  0  0  0  0  0  0  0
    5.4641    1.4650    0.0000 H   0  0  0  0  0  0  0  0  0  0  0  0
    6.3301    2.9650    0.0000 H   0  0  0  0  0  0  0  0  0  0  0  0
    9.4651    0.5350    0.0000 H   0  0  0  0  0  0  0  0  0  0  0  0
    6.0010   -0.2250    0.0000 H   0  0  0  0  0  0  0  0  0  0  0  0
    8.9091    2.1181    0.0000 H   0  0  0  0  0  0  0  0  0  0  0  0
    9.1360    2.9650    0.0000 H   0  0  0  0  0  0  0  0  0  0  0  0
    8.2891    3.1919    0.0000 H   0  0  0  0  0  0  0  0  0  0  0  0
    6.0010   -2.4650    0.0000 H   0  0  0  0  0  0  0  0  0  0  0  0
   10.8681    0.3450    0.0000 H   0  0  0  0  0  0  0  0  0  0  0  0
    4.7365    0.1801    0.0000 H   0  0  0  0  0  0  0  0  0  0  0  0
    5.5335    0.1801    0.0000 H   0  0  0  0  0  0  0  0  0  0  0  0
    4.5981   -2.6550    0.0000 H   0  0  0  0  0  0  0  0  0  0  0  0
   11.1972    0.5350    0.0000 H   0  0  0  0  0  0  0  0  0  0  0  0
    7.4871    3.6550    0.0000 H   0  0  0  0  0  0  0  0  0  0  0  0
    6.8671    4.2750    0.0000 H   0  0  0  0  0  0  0  0  0  0  0  0
    6.2471    3.6550    0.0000 H   0  0  0  0  0  0  0  0  0  0  0  0
    4.2690   -2.4650    0.0000 H   0  0  0  0  0  0  0  0  0  0  0  0
    4.2690   -0.2250    0.0000 H   0  0  0  0  0  0  0  0  0  0  0  0
   11.7341    1.8450    0.0000 H   0  0  0  0  0  0  0  0  0  0  0  0
    9.7942    2.9650    0.0000 H   0  0  0  0  0  0  0  0  0  0  0  0
    3.8015    0.1299    0.0000 H   0  0  0  0  0  0  0  0  0  0  0  0
    3.0044    0.1299    0.0000 H   0  0  0  0  0  0  0  0  0  0  0  0
   10.9512    3.6550    0.0000 H   0  0  0  0  0  0  0  0  0  0  0  0
   10.3312    4.2750    0.0000 H   0  0  0  0  0  0  0  0  0  0  0  0
    9.7112    3.6550    0.0000 H   0  0  0  0  0  0  0  0  0  0  0  0
    6.8671   -2.9650    0.0000 H   0  0  0  0  0  0  0  0  0  0  0  0
   10.8681   -0.6550    0.0000 H   0  0  0  0  0  0  0  0  0  0  0  0
    4.2690    1.7750    0.0000 H   0  0  0  0  0  0  0  0  0  0  0  0
    4.5981   -3.6550    0.0000 H   0  0  0  0  0  0  0  0  0  0  0  0
   12.6002    0.9650    0.0000 H   0  0  0  0  0  0  0  0  0  0  0  0
    3.4030   -2.9650    0.0000 H   0  0  0  0  0  0  0  0  0  0  0  0
   12.0632    3.2750    0.0000 H   0  0  0  0  0  0  0  0  0  0  0  0
    2.0000   -0.5350    0.0000 H   0  0  0  0  0  0  0  0  0  0  0  0
  1 17  1  0  0  0  0
  1 18  1  0  0  0  0
 14  2  1  1  0  0  0
 19  2  1  6  0  0  0
 15  3  1  6  0  0  0
 20  3  1  1  0  0  0
  4 20  1  0  0  0  0
  4 29  1  0  0  0  0
  5 19  1  0  0  0  0
  5 31  1  0  0  0  0
  6 22  1  0  0  0  0
  6 62  1  0  0  0  0
 23  7  1  6  0  0  0
  7 63  1  0  0  0  0
  8 24  1  0  0  0  0
  8 64  1  0  0  0  0
 25  9  1  1  0  0  0
  9 65  1  0  0  0  0
 10 26  1  0  0  0  0
 10 66  1  0  0  0  0
 28 11  1  1  0  0  0
 11 67  1  0  0  0  0
 30 12  1  1  0  0  0
 12 68  1  0  0  0  0
 13 32  1  0  0  0  0
 13 69  1  0  0  0  0
 14 15  1  0  0  0  0
 14 16  1  0  0  0  0
 14 34  1  0  0  0  0
 15 17  1  0  0  0  0
 15 35  1  0  0  0  0
 16 18  1  0  0  0  0
 16 21  1  0  0  0  0
 16 36  1  0  0  0  0
 17 24  1  0  0  0  0
 17 37  1  0  0  0  0
 18 27  1  1  0  0  0
 18 38  1  0  0  0  0
 19 23  1  0  0  0  0
 19 39  1  0  0  0  0
 20 22  1  0  0  0  0
 20 40  1  0  0  0  0
 21 41  1  0  0  0  0
 21 42  1  0  0  0  0
 21 43  1  0  0  0  0
 22 25  1  0  0  0  0
 22 44  1  0  0  0  0
 23 26  1  0  0  0  0
 23 45  1  0  0  0  0
 24 46  1  0  0  0  0
 24 47  1  0  0  0  0
 25 28  1  0  0  0  0
 25 48  1  0  0  0  0
 26 30  1  0  0  0  0
 26 49  1  0  0  0  0
 27 50  1  0  0  0  0
 27 51  1  0  0  0  0
 27 52  1  0  0  0  0
 28 29  1  0  0  0  0
 28 53  1  0  0  0  0
 29 32  1  0  0  0  0
 29 54  1  0  0  0  0
 30 31  1  0  0  0  0
 30 55  1  0  0  0  0
 31 33  1  0  0  0  0
 31 56  1  0  0  0  0
 32 57  1  0  0  0  0
 32 58  1  0  0  0  0
 33 59  1  0  0  0  0
 33 60  1  0  0  0  0
 33 61  1  0  0  0  0
M  END
> <PUBCHEM_COMPOUND_CID>
71179568

> <PUBCHEM_COMPOUND_CANONICALIZED>
1

> <PUBCHEM_CACTVS_COMPLEXITY>
625

> <PUBCHEM_CACTVS_HBOND_ACCEPTOR>
13

> <PUBCHEM_CACTVS_HBOND_DONOR>
8

> <PUBCHEM_CACTVS_ROTATABLE_BOND>
6

> <PUBCHEM_CACTVS_SUBSKEYS>
AAADcfB4PAAAAAAAAAAAAAAAAAAAAAAAAAAkSJAAAAAAAAAAAAAAGgAACAAADRSwgAMCCAAABgAAAAAAAAAAAAAAAAAAAAAAAAAREAIAAAAiQAAFAAAHAAHA4DwOAAAAAAAAAAAAAAAAAAAAAAAAAAAAAA==

> <PUBCHEM_IUPAC_OPENEYE_NAME>
(2S,3S,5S)-2-[(3S,4R,6S)-2-(hydroxymethyl)-5,6-dimethyl-3-[(2S,4S,5R)-3,4,5-trihydroxy-6-(hydroxymethyl)tetrahydropyran-2-yl]oxy-tetrahydropyran-4-yl]oxy-6-methyl-tetrahydropyran-3,4,5-triol

> <PUBCHEM_IUPAC_CAS_NAME>
(2S,3S,5S)-2-[[(3S,4R,6S)-2-(hydroxymethyl)-5,6-dimethyl-3-[[(2S,4S,5R)-3,4,5-trihydroxy-6-(hydroxymethyl)-2-oxanyl]oxy]-4-oxanyl]oxy]-6-methyloxane-3,4,5-triol

> <PUBCHEM_IUPAC_NAME_MARKUP>
(2<I>S</I>,3<I>S</I>,5<I>S</I>)-2-[(3<I>S</I>,4<I>R</I>,6<I>S</I>)-2-(hydroxymethyl)-5,6-dimethyl-3-[(2<I>S</I>,4<I>S</I>,5<I>R</I>)-3,4,5-trihydroxy-6-(hydroxymethyl)oxan-2-yl]oxyoxan-4-yl]oxy-6-methyloxane-3,4,5-triol

> <PUBCHEM_IUPAC_NAME>
(2S,3S,5S)-2-[(3S,4R,6S)-2-(hydroxymethyl)-5,6-dimethyl-3-[(2S,4S,5R)-3,4,5-trihydroxy-6-(hydroxymethyl)oxan-2-yl]oxyoxan-4-yl]oxy-6-methyloxane-3,4,5-triol

> <PUBCHEM_IUPAC_SYSTEMATIC_NAME>
(2S,3S,5S)-2-[(3S,4R,6S)-2-(hydroxymethyl)-3-[(2S,4S,5R)-6-(hydroxymethyl)-3,4,5-tris(oxidanyl)oxan-2-yl]oxy-5,6-dimethyl-oxan-4-yl]oxy-6-methyl-oxane-3,4,5-triol

> <PUBCHEM_IUPAC_TRADITIONAL_NAME>
(2S,3S,5S)-2-[(2S,4R,5S)-2,3-dimethyl-6-methylol-5-[(2S,4S,5R)-3,4,5-trihydroxy-6-methylol-tetrahydropyran-2-yl]oxy-tetrahydropyran-4-yl]oxy-6-methyl-tetrahydropyran-3,4,5-triol

> <PUBCHEM_IUPAC_INCHI>
InChI=1S/C20H36O13/c1-6-7(2)29-10(5-22)18(33-20-16(28)14(26)12(24)9(4-21)31-20)17(6)32-19-15(27)13(25)11(23)8(3)30-19/h6-28H,4-5H2,1-3H3/t6?,7-,8?,9?,10?,11+,12-,13?,14-,15-,16?,17+,18+,19-,20-/m0/s1

> <PUBCHEM_IUPAC_INCHIKEY>
KDBWRDIEHVDFEG-UBAFWWMCSA-N

> <PUBCHEM_XLOGP3_AA>
-3.5

> <PUBCHEM_EXACT_MASS>
484.21559120

> <PUBCHEM_MOLECULAR_FORMULA>
C20H36O13

> <PUBCHEM_MOLECULAR_WEIGHT>
484.5

> <PUBCHEM_OPENEYE_CAN_SMILES>
CC1C(OC(C(C1OC2C(C(C(C(O2)C)O)O)O)OC3C(C(C(C(O3)CO)O)O)O)CO)C

> <PUBCHEM_OPENEYE_ISO_SMILES>
C[C@H]1C([C@H]([C@@H](C(O1)CO)O[C@H]2C([C@H]([C@H](C(O2)CO)O)O)O)O[C@H]3[C@H](C([C@@H](C(O3)C)O)O)O)C

> <PUBCHEM_CACTVS_TPSA>
208

> <PUBCHEM_MONOISOTOPIC_WEIGHT>
484.21559120

> <PUBCHEM_TOTAL_CHARGE>
0

> <PUBCHEM_HEAVY_ATOM_COUNT>
33

> <PUBCHEM_ATOM_DEF_STEREO_COUNT>
9

> <PUBCHEM_ATOM_UDEF_STEREO_COUNT>
6

> <PUBCHEM_BOND_DEF_STEREO_COUNT>
0

> <PUBCHEM_BOND_UDEF_STEREO_COUNT>
0

> <PUBCHEM_ISOTOPIC_ATOM_COUNT>
0

> <PUBCHEM_COMPONENT_COUNT>
1

> <PUBCHEM_CACTVS_TAUTO_COUNT>
-1

> <PUBCHEM_COORDINATE_TYPE>
1
5
255

> <PUBCHEM_BONDANNOTATIONS>
26  10  3
28  11  5
30  12  5
16  21  3
17  24  3
18  27  5
14  2  5
19  2  6
29  32  3
15  3  6
20  3  5
31  33  3
22  6  3
23  7  6
25  9  5

$$$$
