 
  -OEChem-10192103382D

 49 50  0     1  0  0  0  0  0999 V2000
    6.3301   -1.3450    0.0000 O   0  0  0  0  0  0  0  0  0  0  0  0
    4.5981   -3.3450    0.0000 O   0  0  0  0  0  0  0  0  0  0  0  0
    6.3301   -4.3450    0.0000 O   0  0  0  0  0  0  0  0  0  0  0  0
    8.0622   -1.3450    0.0000 O   0  0  0  0  0  0  0  0  0  0  0  0
    8.0622   -3.3450    0.0000 O   0  0  0  0  0  0  0  0  0  0  0  0
    3.7320   -1.8450    0.0000 O   0  0  0  0  0  0  0  0  0  0  0  0
    9.7942   -0.3450    0.0000 O   0  0  0  0  0  0  0  0  0  0  0  0
    2.8660   -0.3450    0.0000 O   0  0  0  0  0  0  0  0  0  0  0  0
    9.7942    4.6550    0.0000 O   0  5  0  0  0  0  0  0  0  0  0  0
    8.0622    4.6550    0.0000 O   0  0  0  0  0  0  0  0  0  0  0  0
    8.9282    4.1550    0.0000 N   0  3  0  0  0  0  0  0  0  0  0  0
    5.4641   -2.8450    0.0000 C   0  0  1  0  0  0  0  0  0  0  0  0
    6.3301   -3.3450    0.0000 C   0  0  1  0  0  0  0  0  0  0  0  0
    5.4641   -1.8450    0.0000 C   0  0  1  0  0  0  0  0  0  0  0  0
    7.1962   -2.8450    0.0000 C   0  0  2  0  0  0  0  0  0  0  0  0
    7.1962   -1.8450    0.0000 C   0  0  1  0  0  0  0  0  0  0  0  0
    4.5981   -1.3450    0.0000 C   0  0  0  0  0  0  0  0  0  0  0  0
    8.0622   -0.3450    0.0000 C   0  0  0  0  0  0  0  0  0  0  0  0
    8.9282    0.1550    0.0000 C   0  0  0  0  0  0  0  0  0  0  0  0
    7.1962    0.1550    0.0000 C   0  0  0  0  0  0  0  0  0  0  0  0
    2.8660   -1.3450    0.0000 C   0  0  0  0  0  0  0  0  0  0  0  0
    8.9282    1.1550    0.0000 C   0  0  0  0  0  0  0  0  0  0  0  0
    7.1962    1.1550    0.0000 C   0  0  0  0  0  0  0  0  0  0  0  0
    8.0622    1.6550    0.0000 C   0  0  0  0  0  0  0  0  0  0  0  0
    2.0000   -1.8450    0.0000 C   0  0  0  0  0  0  0  0  0  0  0  0
    8.0622    2.6550    0.0000 C   0  0  0  0  0  0  0  0  0  0  0  0
   10.6603    0.1550    0.0000 C   0  0  0  0  0  0  0  0  0  0  0  0
    8.9282    3.1550    0.0000 C   0  0  0  0  0  0  0  0  0  0  0  0
    5.4641   -3.4650    0.0000 H   0  0  0  0  0  0  0  0  0  0  0  0
    5.7932   -3.6550    0.0000 H   0  0  0  0  0  0  0  0  0  0  0  0
    5.4641   -1.2250    0.0000 H   0  0  0  0  0  0  0  0  0  0  0  0
    7.1962   -3.4650    0.0000 H   0  0  0  0  0  0  0  0  0  0  0  0
    7.7331   -2.1550    0.0000 H   0  0  0  0  0  0  0  0  0  0  0  0
    4.9966   -0.8701    0.0000 H   0  0  0  0  0  0  0  0  0  0  0  0
    4.1996   -0.8701    0.0000 H   0  0  0  0  0  0  0  0  0  0  0  0
    4.5981   -3.9650    0.0000 H   0  0  0  0  0  0  0  0  0  0  0  0
    5.7932   -4.6550    0.0000 H   0  0  0  0  0  0  0  0  0  0  0  0
    8.0622   -3.9650    0.0000 H   0  0  0  0  0  0  0  0  0  0  0  0
    6.6592   -0.1550    0.0000 H   0  0  0  0  0  0  0  0  0  0  0  0
    9.4651    1.4650    0.0000 H   0  0  0  0  0  0  0  0  0  0  0  0
    6.6592    1.4650    0.0000 H   0  0  0  0  0  0  0  0  0  0  0  0
    1.6900   -1.3081    0.0000 H   0  0  0  0  0  0  0  0  0  0  0  0
    1.4631   -2.1550    0.0000 H   0  0  0  0  0  0  0  0  0  0  0  0
    2.3100   -2.3819    0.0000 H   0  0  0  0  0  0  0  0  0  0  0  0
    7.5252    2.9650    0.0000 H   0  0  0  0  0  0  0  0  0  0  0  0
   10.9703   -0.3819    0.0000 H   0  0  0  0  0  0  0  0  0  0  0  0
   11.1972    0.4650    0.0000 H   0  0  0  0  0  0  0  0  0  0  0  0
   10.3503    0.6919    0.0000 H   0  0  0  0  0  0  0  0  0  0  0  0
    9.4651    2.8450    0.0000 H   0  0  0  0  0  0  0  0  0  0  0  0
  1 14  1  0  0  0  0
  1 16  1  0  0  0  0
 12  2  1  6  0  0  0
  2 36  1  0  0  0  0
 13  3  1  1  0  0  0
  3 37  1  0  0  0  0
 16  4  1  1  0  0  0
  4 18  1  0  0  0  0
 15  5  1  6  0  0  0
  5 38  1  0  0  0  0
  6 17  1  0  0  0  0
  6 21  1  0  0  0  0
  7 19  1  0  0  0  0
  7 27  1  0  0  0  0
  8 21  2  0  0  0  0
  9 11  1  0  0  0  0
 10 11  2  0  0  0  0
 11 28  1  0  0  0  0
 12 13  1  0  0  0  0
 12 14  1  0  0  0  0
 12 29  1  0  0  0  0
 13 15  1  0  0  0  0
 13 30  1  0  0  0  0
 14 17  1  1  0  0  0
 14 31  1  0  0  0  0
 15 16  1  0  0  0  0
 15 32  1  0  0  0  0
 16 33  1  0  0  0  0
 17 34  1  0  0  0  0
 17 35  1  0  0  0  0
 18 19  2  0  0  0  0
 18 20  1  0  0  0  0
 19 22  1  0  0  0  0
 20 23  2  0  0  0  0
 20 39  1  0  0  0  0
 21 25  1  0  0  0  0
 22 24  2  0  0  0  0
 22 40  1  0  0  0  0
 23 24  1  0  0  0  0
 23 41  1  0  0  0  0
 24 26  1  0  0  0  0
 25 42  1  0  0  0  0
 25 43  1  0  0  0  0
 25 44  1  0  0  0  0
 26 28  2  3  0  0  0
 26 45  1  0  0  0  0
 27 46  1  0  0  0  0
 27 47  1  0  0  0  0
 27 48  1  0  0  0  0
 28 49  1  0  0  0  0
M  CHG  2   9  -1  11   1
M  END
> <PUBCHEM_COMPOUND_CID>
54414651

> <PUBCHEM_COMPOUND_CANONICALIZED>
1

> <PUBCHEM_CACTVS_COMPLEXITY>
565

> <PUBCHEM_CACTVS_HBOND_ACCEPTOR>
10

> <PUBCHEM_CACTVS_HBOND_DONOR>
3

> <PUBCHEM_CACTVS_ROTATABLE_BOND>
7

> <PUBCHEM_CACTVS_SUBSKEYS>
AAADceB6PAAAAAAAAAAAAAAAAAAAAAAAAAA0QAAAAAAAAAABAAAAHgAECAAADBTxmAcyDoAQRgCJAiDWSwACCAAgIgAIiAAGiIgdNiKEMRqieCKlwBEPqAfA4BwOIAABAAAAQABAAAIAAACAAAAAAAAAAA==

> <PUBCHEM_IUPAC_OPENEYE_NAME>
[(2R,3S,4S,5R,6S)-3,4,5-trihydroxy-6-[2-methoxy-4-(2-nitrovinyl)phenoxy]tetrahydropyran-2-yl]methyl acetate

> <PUBCHEM_IUPAC_CAS_NAME>
acetic acid [(2R,3S,4S,5R,6S)-3,4,5-trihydroxy-6-[2-methoxy-4-(2-nitroethenyl)phenoxy]-2-oxanyl]methyl ester

> <PUBCHEM_IUPAC_NAME_MARKUP>
[(2<I>R</I>,3<I>S</I>,4<I>S</I>,5<I>R</I>,6<I>S</I>)-3,4,5-trihydroxy-6-[2-methoxy-4-(2-nitroethenyl)phenoxy]oxan-2-yl]methyl acetate

> <PUBCHEM_IUPAC_NAME>
[(2R,3S,4S,5R,6S)-3,4,5-trihydroxy-6-[2-methoxy-4-(2-nitroethenyl)phenoxy]oxan-2-yl]methyl acetate

> <PUBCHEM_IUPAC_SYSTEMATIC_NAME>
[(2R,3S,4S,5R,6S)-6-[2-methoxy-4-(2-nitroethenyl)phenoxy]-3,4,5-tris(oxidanyl)oxan-2-yl]methyl ethanoate

> <PUBCHEM_IUPAC_TRADITIONAL_NAME>
acetic acid [(2R,3S,4S,5R,6S)-3,4,5-trihydroxy-6-[2-methoxy-4-(2-nitrovinyl)phenoxy]tetrahydropyran-2-yl]methyl ester

> <PUBCHEM_IUPAC_INCHI>
InChI=1S/C17H21NO10/c1-9(19)26-8-13-14(20)15(21)16(22)17(28-13)27-11-4-3-10(5-6-18(23)24)7-12(11)25-2/h3-7,13-17,20-22H,8H2,1-2H3/t13-,14-,15+,16-,17-/m1/s1

> <PUBCHEM_IUPAC_INCHIKEY>
VWOIUNNMOZRJOT-NQNKBUKLSA-N

> <PUBCHEM_XLOGP3>
-0.8

> <PUBCHEM_EXACT_MASS>
399.11654587

> <PUBCHEM_MOLECULAR_FORMULA>
C17H21NO10

> <PUBCHEM_MOLECULAR_WEIGHT>
399.3

> <PUBCHEM_OPENEYE_CAN_SMILES>
CC(=O)OCC1C(C(C(C(O1)OC2=C(C=C(C=C2)C=C[N+](=O)[O-])OC)O)O)O

> <PUBCHEM_OPENEYE_ISO_SMILES>
CC(=O)OC[C@@H]1[C@H]([C@@H]([C@H]([C@@H](O1)OC2=C(C=C(C=C2)C=C[N+](=O)[O-])OC)O)O)O

> <PUBCHEM_CACTVS_TPSA>
161

> <PUBCHEM_MONOISOTOPIC_WEIGHT>
399.11654587

> <PUBCHEM_TOTAL_CHARGE>
0

> <PUBCHEM_HEAVY_ATOM_COUNT>
28

> <PUBCHEM_ATOM_DEF_STEREO_COUNT>
5

> <PUBCHEM_ATOM_UDEF_STEREO_COUNT>
0

> <PUBCHEM_BOND_DEF_STEREO_COUNT>
0

> <PUBCHEM_BOND_UDEF_STEREO_COUNT>
1

> <PUBCHEM_ISOTOPIC_ATOM_COUNT>
0

> <PUBCHEM_COMPONENT_COUNT>
1

> <PUBCHEM_CACTVS_TAUTO_COUNT>
-1

> <PUBCHEM_COORDINATE_TYPE>
1
5
255

> <PUBCHEM_BONDANNOTATIONS>
14  17  5
18  19  8
18  20  8
19  22  8
12  2  6
20  23  8
22  24  8
23  24  8
26  28  1
13  3  5
16  4  5
15  5  6

$$$$
