 
  -OEChem-10192103442D

 24 24  0     1  0  0  0  0  0999 V2000
    2.0000   -2.3907    0.0000 O   0  0  0  0  0  0  0  0  0  0  0  0
    3.0878   -0.0429    0.0000 C   0  0  3  0  0  0  0  0  0  0  0  0
    3.8968   -0.6307    0.0000 C   0  0  0  0  0  0  0  0  0  0  0  0
    3.0878    0.9571    0.0000 C   0  0  0  0  0  0  0  0  0  0  0  0
    3.5878   -1.5817    0.0000 C   0  0  0  0  0  0  0  0  0  0  0  0
    2.2788   -0.6307    0.0000 C   0  0  0  0  0  0  0  0  0  0  0  0
    2.5878   -1.5817    0.0000 C   0  0  0  0  0  0  0  0  0  0  0  0
    3.9538    1.4571    0.0000 C   0  0  0  0  0  0  0  0  0  0  0  0
    3.9538    2.4571    0.0000 C   0  0  0  0  0  0  0  0  0  0  0  0
    4.8198    2.9571    0.0000 C   0  0  0  0  0  0  0  0  0  0  0  0
    3.6402    0.2386    0.0000 H   0  0  0  0  0  0  0  0  0  0  0  0
    4.4632   -0.8828    0.0000 H   0  0  0  0  0  0  0  0  0  0  0  0
    4.2068   -0.0937    0.0000 H   0  0  0  0  0  0  0  0  0  0  0  0
    2.8757    1.5397    0.0000 H   0  0  0  0  0  0  0  0  0  0  0  0
    2.4772    0.8495    0.0000 H   0  0  0  0  0  0  0  0  0  0  0  0
    3.5230   -2.1983    0.0000 H   0  0  0  0  0  0  0  0  0  0  0  0
    4.1942   -1.7106    0.0000 H   0  0  0  0  0  0  0  0  0  0  0  0
    1.6891   -0.4391    0.0000 H   0  0  0  0  0  0  0  0  0  0  0  0
    4.1659    0.8745    0.0000 H   0  0  0  0  0  0  0  0  0  0  0  0
    4.5644    1.5648    0.0000 H   0  0  0  0  0  0  0  0  0  0  0  0
    3.4169    2.7671    0.0000 H   0  0  0  0  0  0  0  0  0  0  0  0
    2.2522   -2.9571    0.0000 H   0  0  0  0  0  0  0  0  0  0  0  0
    5.3568    2.6471    0.0000 H   0  0  0  0  0  0  0  0  0  0  0  0
    4.8198    3.5771    0.0000 H   0  0  0  0  0  0  0  0  0  0  0  0
  1  7  1  0  0  0  0
  1 22  1  0  0  0  0
  2  3  1  0  0  0  0
  2  4  1  0  0  0  0
  2  6  1  0  0  0  0
  2 11  1  0  0  0  0
  3  5  1  0  0  0  0
  3 12  1  0  0  0  0
  3 13  1  0  0  0  0
  4  8  1  0  0  0  0
  4 14  1  0  0  0  0
  4 15  1  0  0  0  0
  5  7  1  0  0  0  0
  5 16  1  0  0  0  0
  5 17  1  0  0  0  0
  6  7  2  0  0  0  0
  6 18  1  0  0  0  0
  8  9  1  0  0  0  0
  8 19  1  0  0  0  0
  8 20  1  0  0  0  0
  9 10  2  0  0  0  0
  9 21  1  0  0  0  0
 10 23  1  0  0  0  0
 10 24  1  0  0  0  0
M  END
> <PUBCHEM_COMPOUND_CID>
10240874

> <PUBCHEM_COMPOUND_CANONICALIZED>
1

> <PUBCHEM_CACTVS_COMPLEXITY>
147

> <PUBCHEM_CACTVS_HBOND_ACCEPTOR>
1

> <PUBCHEM_CACTVS_HBOND_DONOR>
1

> <PUBCHEM_CACTVS_ROTATABLE_BOND>
3

> <PUBCHEM_CACTVS_SUBSKEYS>
AAADccBwIAAAAAAAAAAAAAAAAAAAAQAAAAAAAAAAAAAAAAAAAAAAGgAACAAADQSAgAAAAAAAAgCAACBCAAAAAAAgIAAICAAAAAgAAAIAAQAAQAAEgAAIAAOAwCAOAAAAAAAAAAAAAAAAAAAAAAAAAAAAAA==

> <PUBCHEM_IUPAC_OPENEYE_NAME>
3-but-3-enylcyclopenten-1-ol

> <PUBCHEM_IUPAC_CAS_NAME>
3-but-3-enyl-1-cyclopentenol

> <PUBCHEM_IUPAC_NAME_MARKUP>
3-but-3-enylcyclopenten-1-ol

> <PUBCHEM_IUPAC_NAME>
3-but-3-enylcyclopenten-1-ol

> <PUBCHEM_IUPAC_SYSTEMATIC_NAME>
3-but-3-enylcyclopenten-1-ol

> <PUBCHEM_IUPAC_TRADITIONAL_NAME>
3-but-3-enylcyclopenten-1-ol

> <PUBCHEM_IUPAC_INCHI>
InChI=1S/C9H14O/c1-2-3-4-8-5-6-9(10)7-8/h2,7-8,10H,1,3-6H2

> <PUBCHEM_IUPAC_INCHIKEY>
KAZJQFMJQRNUBH-UHFFFAOYSA-N

> <PUBCHEM_XLOGP3_AA>
2.5

> <PUBCHEM_EXACT_MASS>
138.104465066

> <PUBCHEM_MOLECULAR_FORMULA>
C9H14O

> <PUBCHEM_MOLECULAR_WEIGHT>
138.21

> <PUBCHEM_OPENEYE_CAN_SMILES>
C=CCCC1CCC(=C1)O

> <PUBCHEM_OPENEYE_ISO_SMILES>
C=CCCC1CCC(=C1)O

> <PUBCHEM_CACTVS_TPSA>
20.2

> <PUBCHEM_MONOISOTOPIC_WEIGHT>
138.104465066

> <PUBCHEM_TOTAL_CHARGE>
0

> <PUBCHEM_HEAVY_ATOM_COUNT>
10

> <PUBCHEM_ATOM_DEF_STEREO_COUNT>
0

> <PUBCHEM_ATOM_UDEF_STEREO_COUNT>
1

> <PUBCHEM_BOND_DEF_STEREO_COUNT>
0

> <PUBCHEM_BOND_UDEF_STEREO_COUNT>
0

> <PUBCHEM_ISOTOPIC_ATOM_COUNT>
0

> <PUBCHEM_COMPONENT_COUNT>
1

> <PUBCHEM_CACTVS_TAUTO_COUNT>
-1

> <PUBCHEM_COORDINATE_TYPE>
1
5
255

> <PUBCHEM_BONDANNOTATIONS>
2  4  3

$$$$
