 
  -OEChem-10192103582D

 94 97  0     0  0  0  0  0  0999 V2000
   12.0632    2.9050    0.0000 O   0  0  0  0  0  0  0  0  0  0  0  0
    6.0010    2.4050    0.0000 O   0  0  0  0  0  0  0  0  0  0  0  0
   11.1972    4.4050    0.0000 O   0  0  0  0  0  0  0  0  0  0  0  0
   12.0632   -3.0950    0.0000 O   0  0  0  0  0  0  0  0  0  0  0  0
    9.4651   -1.5950    0.0000 O   0  0  0  0  0  0  0  0  0  0  0  0
    5.1350   -2.0950    0.0000 O   0  0  0  0  0  0  0  0  0  0  0  0
    4.2690    2.4050    0.0000 O   0  0  0  0  0  0  0  0  0  0  0  0
    9.4651    5.4050    0.0000 O   0  0  0  0  0  0  0  0  0  0  0  0
    6.8671   -2.0950    0.0000 O   0  0  0  0  0  0  0  0  0  0  0  0
    2.5369    1.4050    0.0000 O   0  0  0  0  0  0  0  0  0  0  0  0
   13.7953   -3.0950    0.0000 O   0  0  0  0  0  0  0  0  0  0  0  0
    8.5991   -3.0950    0.0000 O   0  0  0  0  0  0  0  0  0  0  0  0
   15.5273   -2.0950    0.0000 O   0  0  0  0  0  0  0  0  0  0  0  0
    8.5991   -5.0950    0.0000 O   0  0  0  0  0  0  0  0  0  0  0  0
   11.1972    1.4050    0.0000 N   0  0  0  0  0  0  0  0  0  0  0  0
    6.8671    0.9050    0.0000 N   0  0  0  0  0  0  0  0  0  0  0  0
   11.1972   -1.5950    0.0000 N   0  0  0  0  0  0  0  0  0  0  0  0
    9.4651    1.4050    0.0000 C   0  0  0  0  0  0  0  0  0  0  0  0
   10.3312    0.9050    0.0000 C   0  0  0  0  0  0  0  0  0  0  0  0
    8.5991    0.9050    0.0000 C   0  0  0  0  0  0  0  0  0  0  0  0
   12.0632    0.9050    0.0000 C   0  0  0  0  0  0  0  0  0  0  0  0
    7.7331    1.4050    0.0000 C   0  0  0  0  0  0  0  0  0  0  0  0
   12.0632   -0.0950    0.0000 C   0  0  0  0  0  0  0  0  0  0  0  0
   11.1972   -0.5950    0.0000 C   0  0  0  0  0  0  0  0  0  0  0  0
   11.1972    2.4050    0.0000 C   0  0  0  0  0  0  0  0  0  0  0  0
    6.8671   -0.0950    0.0000 C   0  0  0  0  0  0  0  0  0  0  0  0
    6.0010    1.4050    0.0000 C   0  0  0  0  0  0  0  0  0  0  0  0
   10.3312    2.9050    0.0000 C   0  0  0  0  0  0  0  0  0  0  0  0
    6.0010   -0.5950    0.0000 C   0  0  0  0  0  0  0  0  0  0  0  0
    5.1350    0.9050    0.0000 C   0  0  0  0  0  0  0  0  0  0  0  0
   12.0632   -2.0950    0.0000 C   0  0  0  0  0  0  0  0  0  0  0  0
   10.3312   -2.0950    0.0000 C   0  0  0  0  0  0  0  0  0  0  0  0
   10.3312    3.9050    0.0000 C   0  0  0  0  0  0  0  0  0  0  0  0
    9.4651    2.4050    0.0000 C   0  0  0  0  0  0  0  0  0  0  0  0
    6.0010   -1.5950    0.0000 C   0  0  0  0  0  0  0  0  0  0  0  0
   12.9292   -1.5950    0.0000 C   0  0  0  0  0  0  0  0  0  0  0  0
   10.3312   -3.0950    0.0000 C   0  0  0  0  0  0  0  0  0  0  0  0
    4.2690    1.4050    0.0000 C   0  0  0  0  0  0  0  0  0  0  0  0
    5.1350   -0.0950    0.0000 C   0  0  0  0  0  0  0  0  0  0  0  0
    9.4651    4.4050    0.0000 C   0  0  0  0  0  0  0  0  0  0  0  0
    8.5991    2.9050    0.0000 C   0  0  0  0  0  0  0  0  0  0  0  0
    8.5991    3.9050    0.0000 C   0  0  0  0  0  0  0  0  0  0  0  0
    3.4030    0.9050    0.0000 C   0  0  0  0  0  0  0  0  0  0  0  0
   13.7953   -2.0950    0.0000 C   0  0  0  0  0  0  0  0  0  0  0  0
    9.4651   -3.5950    0.0000 C   0  0  0  0  0  0  0  0  0  0  0  0
    4.2690   -0.5950    0.0000 C   0  0  0  0  0  0  0  0  0  0  0  0
   12.9292   -0.5950    0.0000 C   0  0  0  0  0  0  0  0  0  0  0  0
   11.1972   -3.5950    0.0000 C   0  0  0  0  0  0  0  0  0  0  0  0
    3.4030   -0.0950    0.0000 C   0  0  0  0  0  0  0  0  0  0  0  0
   14.6613   -1.5950    0.0000 C   0  0  0  0  0  0  0  0  0  0  0  0
    9.4651   -4.5950    0.0000 C   0  0  0  0  0  0  0  0  0  0  0  0
   13.7953   -0.0950    0.0000 C   0  0  0  0  0  0  0  0  0  0  0  0
   11.1972   -4.5950    0.0000 C   0  0  0  0  0  0  0  0  0  0  0  0
   14.6613   -0.5950    0.0000 C   0  0  0  0  0  0  0  0  0  0  0  0
   10.3312   -5.0950    0.0000 C   0  0  0  0  0  0  0  0  0  0  0  0
    9.8637    1.8800    0.0000 H   0  0  0  0  0  0  0  0  0  0  0  0
    9.0666    1.8800    0.0000 H   0  0  0  0  0  0  0  0  0  0  0  0
    9.9326    0.4301    0.0000 H   0  0  0  0  0  0  0  0  0  0  0  0
   10.7297    0.4301    0.0000 H   0  0  0  0  0  0  0  0  0  0  0  0
    8.2006    0.4301    0.0000 H   0  0  0  0  0  0  0  0  0  0  0  0
    8.9976    0.4301    0.0000 H   0  0  0  0  0  0  0  0  0  0  0  0
   12.6738    0.7973    0.0000 H   0  0  0  0  0  0  0  0  0  0  0  0
   12.2753    1.4876    0.0000 H   0  0  0  0  0  0  0  0  0  0  0  0
    8.1316    1.8800    0.0000 H   0  0  0  0  0  0  0  0  0  0  0  0
    7.3346    1.8800    0.0000 H   0  0  0  0  0  0  0  0  0  0  0  0
   12.2753   -0.6776    0.0000 H   0  0  0  0  0  0  0  0  0  0  0  0
   12.6738    0.0127    0.0000 H   0  0  0  0  0  0  0  0  0  0  0  0
   10.9851   -0.0124    0.0000 H   0  0  0  0  0  0  0  0  0  0  0  0
   10.5866   -0.7027    0.0000 H   0  0  0  0  0  0  0  0  0  0  0  0
    7.0791   -0.6776    0.0000 H   0  0  0  0  0  0  0  0  0  0  0  0
    7.4776    0.0127    0.0000 H   0  0  0  0  0  0  0  0  0  0  0  0
    5.7890   -0.0124    0.0000 H   0  0  0  0  0  0  0  0  0  0  0  0
    5.3905   -0.7027    0.0000 H   0  0  0  0  0  0  0  0  0  0  0  0
    9.4651    1.7850    0.0000 H   0  0  0  0  0  0  0  0  0  0  0  0
    5.6720   -0.4050    0.0000 H   0  0  0  0  0  0  0  0  0  0  0  0
    8.0622    2.5950    0.0000 H   0  0  0  0  0  0  0  0  0  0  0  0
    8.0622    4.2150    0.0000 H   0  0  0  0  0  0  0  0  0  0  0  0
    4.2690   -1.2150    0.0000 H   0  0  0  0  0  0  0  0  0  0  0  0
   12.3923   -0.2850    0.0000 H   0  0  0  0  0  0  0  0  0  0  0  0
   11.7341   -3.2850    0.0000 H   0  0  0  0  0  0  0  0  0  0  0  0
    2.8660   -0.4050    0.0000 H   0  0  0  0  0  0  0  0  0  0  0  0
   11.1972    5.0250    0.0000 H   0  0  0  0  0  0  0  0  0  0  0  0
   13.7953    0.5250    0.0000 H   0  0  0  0  0  0  0  0  0  0  0  0
   11.7341   -4.9050    0.0000 H   0  0  0  0  0  0  0  0  0  0  0  0
    5.1350   -2.7150    0.0000 H   0  0  0  0  0  0  0  0  0  0  0  0
    4.8059    2.7150    0.0000 H   0  0  0  0  0  0  0  0  0  0  0  0
   15.1982   -0.2850    0.0000 H   0  0  0  0  0  0  0  0  0  0  0  0
   10.3312   -5.7150    0.0000 H   0  0  0  0  0  0  0  0  0  0  0  0
    8.9282    5.7150    0.0000 H   0  0  0  0  0  0  0  0  0  0  0  0
    2.0000    1.0950    0.0000 H   0  0  0  0  0  0  0  0  0  0  0  0
   14.3322   -3.4050    0.0000 H   0  0  0  0  0  0  0  0  0  0  0  0
    8.0622   -3.4050    0.0000 H   0  0  0  0  0  0  0  0  0  0  0  0
   16.0643   -1.7850    0.0000 H   0  0  0  0  0  0  0  0  0  0  0  0
    8.5991   -5.7150    0.0000 H   0  0  0  0  0  0  0  0  0  0  0  0
  1 25  2  0  0  0  0
  2 27  2  0  0  0  0
  3 33  1  0  0  0  0
  3 82  1  0  0  0  0
  4 31  2  0  0  0  0
  5 32  2  0  0  0  0
  6 35  1  0  0  0  0
  6 85  1  0  0  0  0
  7 38  1  0  0  0  0
  7 86  1  0  0  0  0
  8 40  1  0  0  0  0
  8 89  1  0  0  0  0
  9 35  2  0  0  0  0
 10 43  1  0  0  0  0
 10 90  1  0  0  0  0
 11 44  1  0  0  0  0
 11 91  1  0  0  0  0
 12 45  1  0  0  0  0
 12 92  1  0  0  0  0
 13 50  1  0  0  0  0
 13 93  1  0  0  0  0
 14 51  1  0  0  0  0
 14 94  1  0  0  0  0
 15 19  1  0  0  0  0
 15 21  1  0  0  0  0
 15 25  1  0  0  0  0
 16 22  1  0  0  0  0
 16 26  1  0  0  0  0
 16 27  1  0  0  0  0
 17 24  1  0  0  0  0
 17 31  1  0  0  0  0
 17 32  1  0  0  0  0
 18 19  1  0  0  0  0
 18 20  1  0  0  0  0
 18 56  1  0  0  0  0
 18 57  1  0  0  0  0
 19 58  1  0  0  0  0
 19 59  1  0  0  0  0
 20 22  1  0  0  0  0
 20 60  1  0  0  0  0
 20 61  1  0  0  0  0
 21 23  1  0  0  0  0
 21 62  1  0  0  0  0
 21 63  1  0  0  0  0
 22 64  1  0  0  0  0
 22 65  1  0  0  0  0
 23 24  1  0  0  0  0
 23 66  1  0  0  0  0
 23 67  1  0  0  0  0
 24 68  1  0  0  0  0
 24 69  1  0  0  0  0
 25 28  1  0  0  0  0
 26 29  1  0  0  0  0
 26 70  1  0  0  0  0
 26 71  1  0  0  0  0
 27 30  1  0  0  0  0
 28 33  2  0  0  0  0
 28 34  1  0  0  0  0
 29 35  1  0  0  0  0
 29 72  1  0  0  0  0
 29 73  1  0  0  0  0
 30 38  2  0  0  0  0
 30 39  1  0  0  0  0
 31 36  1  0  0  0  0
 32 37  1  0  0  0  0
 33 40  1  0  0  0  0
 34 41  2  0  0  0  0
 34 74  1  0  0  0  0
 36 44  2  0  0  0  0
 36 47  1  0  0  0  0
 37 45  2  0  0  0  0
 37 48  1  0  0  0  0
 38 43  1  0  0  0  0
 39 46  2  0  0  0  0
 39 75  1  0  0  0  0
 40 42  2  0  0  0  0
 41 42  1  0  0  0  0
 41 76  1  0  0  0  0
 42 77  1  0  0  0  0
 43 49  2  0  0  0  0
 44 50  1  0  0  0  0
 45 51  1  0  0  0  0
 46 49  1  0  0  0  0
 46 78  1  0  0  0  0
 47 52  2  0  0  0  0
 47 79  1  0  0  0  0
 48 53  2  0  0  0  0
 48 80  1  0  0  0  0
 49 81  1  0  0  0  0
 50 54  2  0  0  0  0
 51 55  2  0  0  0  0
 52 54  1  0  0  0  0
 52 83  1  0  0  0  0
 53 55  1  0  0  0  0
 53 84  1  0  0  0  0
 54 87  1  0  0  0  0
 55 88  1  0  0  0  0
M  END
> <PUBCHEM_COMPOUND_CID>
134322036

> <PUBCHEM_COMPOUND_CANONICALIZED>
1

> <PUBCHEM_CACTVS_COMPLEXITY>
1270

> <PUBCHEM_CACTVS_HBOND_ACCEPTOR>
14

> <PUBCHEM_CACTVS_HBOND_DONOR>
9

> <PUBCHEM_CACTVS_ROTATABLE_BOND>
16

> <PUBCHEM_CACTVS_SUBSKEYS>
AAADcfB/PAAAAAAAAAAAAAAAAAAAAAAAAAAwYMGAAAAAAAABVAAAHgAACAAADATBmAQwDoMAAgCIAiHSGACCAAAkIAAIiAEOjMgJJj6C1ROEcUlm5jGJmYe6yDCOAAABAAAIQAAAAAIAABCAAAAAAAAAAA==

> <PUBCHEM_IUPAC_OPENEYE_NAME>
3-[4-[3-[bis(2,3-dihydroxybenzoyl)amino]propyl-(2,3-dihydroxybenzoyl)amino]butyl-(2,3-dihydroxybenzoyl)amino]propanoic acid

> <PUBCHEM_IUPAC_CAS_NAME>
3-[4-[3-[bis[(2,3-dihydroxyphenyl)-oxomethyl]amino]propyl-[(2,3-dihydroxyphenyl)-oxomethyl]amino]butyl-[(2,3-dihydroxyphenyl)-oxomethyl]amino]propanoic acid

> <PUBCHEM_IUPAC_NAME_MARKUP>
3-[4-[3-[bis(2,3-dihydroxybenzoyl)amino]propyl-(2,3-dihydroxybenzoyl)amino]butyl-(2,3-dihydroxybenzoyl)amino]propanoic acid

> <PUBCHEM_IUPAC_NAME>
3-[4-[3-[bis(2,3-dihydroxybenzoyl)amino]propyl-(2,3-dihydroxybenzoyl)amino]butyl-(2,3-dihydroxybenzoyl)amino]propanoic acid

> <PUBCHEM_IUPAC_SYSTEMATIC_NAME>
3-[4-[3-[bis[[2,3-bis(oxidanyl)phenyl]carbonyl]amino]propyl-[2,3-bis(oxidanyl)phenyl]carbonyl-amino]butyl-[2,3-bis(oxidanyl)phenyl]carbonyl-amino]propanoic acid

> <PUBCHEM_IUPAC_TRADITIONAL_NAME>
3-[4-[3-[bis(2,3-dihydroxybenzoyl)amino]propyl-(2,3-dihydroxybenzoyl)amino]butyl-(2,3-dihydroxybenzoyl)amino]propionic acid

> <PUBCHEM_IUPAC_INCHI>
InChI=1S/C38H39N3O14/c42-26-12-3-8-22(31(26)48)35(52)39(17-1-2-18-40(21-16-30(46)47)36(53)23-9-4-13-27(43)32(23)49)19-7-20-41(37(54)24-10-5-14-28(44)33(24)50)38(55)25-11-6-15-29(45)34(25)51/h3-6,8-15,42-45,48-51H,1-2,7,16-21H2,(H,46,47)

> <PUBCHEM_IUPAC_INCHIKEY>
GNTYVVWIVUEYRZ-UHFFFAOYSA-N

> <PUBCHEM_XLOGP3_AA>
5.1

> <PUBCHEM_EXACT_MASS>
761.24320293

> <PUBCHEM_MOLECULAR_FORMULA>
C38H39N3O14

> <PUBCHEM_MOLECULAR_WEIGHT>
761.7

> <PUBCHEM_OPENEYE_CAN_SMILES>
C1=CC(=C(C(=C1)O)O)C(=O)N(CCCCN(CCC(=O)O)C(=O)C2=C(C(=CC=C2)O)O)CCCN(C(=O)C3=C(C(=CC=C3)O)O)C(=O)C4=C(C(=CC=C4)O)O

> <PUBCHEM_OPENEYE_ISO_SMILES>
C1=CC(=C(C(=C1)O)O)C(=O)N(CCCCN(CCC(=O)O)C(=O)C2=C(C(=CC=C2)O)O)CCCN(C(=O)C3=C(C(=CC=C3)O)O)C(=O)C4=C(C(=CC=C4)O)O

> <PUBCHEM_CACTVS_TPSA>
277

> <PUBCHEM_MONOISOTOPIC_WEIGHT>
761.24320293

> <PUBCHEM_TOTAL_CHARGE>
0

> <PUBCHEM_HEAVY_ATOM_COUNT>
55

> <PUBCHEM_ATOM_DEF_STEREO_COUNT>
0

> <PUBCHEM_ATOM_UDEF_STEREO_COUNT>
0

> <PUBCHEM_BOND_DEF_STEREO_COUNT>
0

> <PUBCHEM_BOND_UDEF_STEREO_COUNT>
0

> <PUBCHEM_ISOTOPIC_ATOM_COUNT>
0

> <PUBCHEM_COMPONENT_COUNT>
1

> <PUBCHEM_CACTVS_TAUTO_COUNT>
-1

> <PUBCHEM_COORDINATE_TYPE>
1
5
255

> <PUBCHEM_BONDANNOTATIONS>
28  33  8
28  34  8
30  38  8
30  39  8
33  40  8
34  41  8
36  44  8
36  47  8
37  45  8
37  48  8
38  43  8
39  46  8
40  42  8
41  42  8
43  49  8
44  50  8
45  51  8
46  49  8
47  52  8
48  53  8
50  54  8
51  55  8
52  54  8
53  55  8

$$$$
