 
  -OEChem-10192104312D

 68 71  0     1  0  0  0  0  0999 V2000
   10.3312   -1.0950    0.0000 O   0  0  0  0  0  0  0  0  0  0  0  0
    8.5991   -1.0950    0.0000 O   0  0  0  0  0  0  0  0  0  0  0  0
    9.4651    0.4050    0.0000 O   0  0  0  0  0  0  0  0  0  0  0  0
    6.0010   -1.5950    0.0000 O   0  0  0  0  0  0  0  0  0  0  0  0
   10.3312   -3.0950    0.0000 O   0  0  0  0  0  0  0  0  0  0  0  0
    8.5991   -4.0950    0.0000 O   0  0  0  0  0  0  0  0  0  0  0  0
    6.8671   -3.0950    0.0000 O   0  0  0  0  0  0  0  0  0  0  0  0
    5.1350   -0.0950    0.0000 O   0  0  0  0  0  0  0  0  0  0  0  0
   13.4326   -1.0565    0.0000 O   0  0  0  0  0  0  0  0  0  0  0  0
    9.4651    3.4050    0.0000 O   0  0  0  0  0  0  0  0  0  0  0  0
    4.2690   -2.5950    0.0000 O   0  0  0  0  0  0  0  0  0  0  0  0
    2.5369   -1.5950    0.0000 O   0  0  0  0  0  0  0  0  0  0  0  0
    2.5369    0.4050    0.0000 O   0  0  0  0  0  0  0  0  0  0  0  0
   11.1972    3.4050    0.0000 O   0  0  0  0  0  0  0  0  0  0  0  0
   11.1972    0.4050    0.0000 C   0  0  2  0  0  0  0  0  0  0  0  0
   11.1972    1.4050    0.0000 C   0  0  2  0  0  0  0  0  0  0  0  0
   10.3312   -0.0950    0.0000 C   0  0  2  0  0  0  0  0  0  0  0  0
   12.1434    1.7097    0.0000 C   0  0  0  0  0  0  0  0  0  0  0  0
   12.1434    0.1003    0.0000 C   0  0  0  0  0  0  0  0  0  0  0  0
    9.4651   -1.5950    0.0000 C   0  0  2  0  0  0  0  0  0  0  0  0
    9.4651   -2.5950    0.0000 C   0  0  1  0  0  0  0  0  0  0  0  0
    7.7331   -1.5950    0.0000 C   0  0  1  0  0  0  0  0  0  0  0  0
    8.5991   -3.0950    0.0000 C   0  0  2  0  0  0  0  0  0  0  0  0
    7.7331   -2.5950    0.0000 C   0  0  2  0  0  0  0  0  0  0  0  0
   12.7270    0.9050    0.0000 C   0  0  0  0  0  0  0  0  0  0  0  0
   10.3312    1.9050    0.0000 C   0  0  0  0  0  0  0  0  0  0  0  0
   12.4541   -0.8503    0.0000 C   0  0  0  0  0  0  0  0  0  0  0  0
    6.8671   -1.0950    0.0000 C   0  0  0  0  0  0  0  0  0  0  0  0
    9.4651    1.4050    0.0000 C   0  0  0  0  0  0  0  0  0  0  0  0
    5.1350   -1.0950    0.0000 C   0  0  1  0  0  0  0  0  0  0  0  0
    4.2690   -1.5950    0.0000 C   0  0  1  0  0  0  0  0  0  0  0  0
   10.3312    2.9050    0.0000 C   0  0  0  0  0  0  0  0  0  0  0  0
    3.4030   -1.0950    0.0000 C   0  0  2  0  0  0  0  0  0  0  0  0
    3.4030   -0.0950    0.0000 C   0  0  1  0  0  0  0  0  0  0  0  0
    4.2690    0.4050    0.0000 C   0  0  0  0  0  0  0  0  0  0  0  0
    9.4651    4.4050    0.0000 C   0  0  0  0  0  0  0  0  0  0  0  0
   11.2871   -0.4402    0.0000 H   0  0  0  0  0  0  0  0  0  0  0  0
   11.2871    2.2502    0.0000 H   0  0  0  0  0  0  0  0  0  0  0  0
    9.7942   -0.4050    0.0000 H   0  0  0  0  0  0  0  0  0  0  0  0
   12.6808    2.0190    0.0000 H   0  0  0  0  0  0  0  0  0  0  0  0
   11.8924    2.2766    0.0000 H   0  0  0  0  0  0  0  0  0  0  0  0
   10.0021   -1.9050    0.0000 H   0  0  0  0  0  0  0  0  0  0  0  0
    9.4651   -3.2150    0.0000 H   0  0  0  0  0  0  0  0  0  0  0  0
    7.7331   -0.9750    0.0000 H   0  0  0  0  0  0  0  0  0  0  0  0
    9.1360   -3.4050    0.0000 H   0  0  0  0  0  0  0  0  0  0  0  0
    7.7331   -3.2150    0.0000 H   0  0  0  0  0  0  0  0  0  0  0  0
   13.3470    0.9050    0.0000 H   0  0  0  0  0  0  0  0  0  0  0  0
    7.2656   -0.6201    0.0000 H   0  0  0  0  0  0  0  0  0  0  0  0
    6.4685   -0.6201    0.0000 H   0  0  0  0  0  0  0  0  0  0  0  0
   11.8403   -0.9376    0.0000 H   0  0  0  0  0  0  0  0  0  0  0  0
   12.4335   -1.4699    0.0000 H   0  0  0  0  0  0  0  0  0  0  0  0
    8.9282    1.7150    0.0000 H   0  0  0  0  0  0  0  0  0  0  0  0
    5.1350   -1.7150    0.0000 H   0  0  0  0  0  0  0  0  0  0  0  0
    3.7320   -1.9050    0.0000 H   0  0  0  0  0  0  0  0  0  0  0  0
    2.8660   -0.7850    0.0000 H   0  0  0  0  0  0  0  0  0  0  0  0
    3.4030    0.5250    0.0000 H   0  0  0  0  0  0  0  0  0  0  0  0
   10.3312   -3.7150    0.0000 H   0  0  0  0  0  0  0  0  0  0  0  0
    8.0622   -4.4050    0.0000 H   0  0  0  0  0  0  0  0  0  0  0  0
    6.8671   -3.7150    0.0000 H   0  0  0  0  0  0  0  0  0  0  0  0
    4.6675    0.8799    0.0000 H   0  0  0  0  0  0  0  0  0  0  0  0
    3.8705    0.8799    0.0000 H   0  0  0  0  0  0  0  0  0  0  0  0
   13.6252   -1.6458    0.0000 H   0  0  0  0  0  0  0  0  0  0  0  0
    3.7320   -2.9050    0.0000 H   0  0  0  0  0  0  0  0  0  0  0  0
    2.0000   -1.2850    0.0000 H   0  0  0  0  0  0  0  0  0  0  0  0
    2.5369    1.0250    0.0000 H   0  0  0  0  0  0  0  0  0  0  0  0
   10.0851    4.4050    0.0000 H   0  0  0  0  0  0  0  0  0  0  0  0
    9.4651    5.0250    0.0000 H   0  0  0  0  0  0  0  0  0  0  0  0
    8.8451    4.4050    0.0000 H   0  0  0  0  0  0  0  0  0  0  0  0
 17  1  1  6  0  0  0
 20  1  1  1  0  0  0
  2 20  1  0  0  0  0
  2 22  1  0  0  0  0
  3 17  1  0  0  0  0
  3 29  1  0  0  0  0
  4 28  1  0  0  0  0
 30  4  1  6  0  0  0
 21  5  1  6  0  0  0
  5 57  1  0  0  0  0
 23  6  1  1  0  0  0
  6 58  1  0  0  0  0
 24  7  1  6  0  0  0
  7 59  1  0  0  0  0
  8 30  1  0  0  0  0
  8 35  1  0  0  0  0
  9 27  1  0  0  0  0
  9 62  1  0  0  0  0
 10 32  1  0  0  0  0
 10 36  1  0  0  0  0
 31 11  1  6  0  0  0
 11 63  1  0  0  0  0
 33 12  1  1  0  0  0
 12 64  1  0  0  0  0
 34 13  1  6  0  0  0
 13 65  1  0  0  0  0
 14 32  2  0  0  0  0
 15 16  1  0  0  0  0
 15 17  1  0  0  0  0
 15 19  1  0  0  0  0
 15 37  1  6  0  0  0
 16 18  1  0  0  0  0
 16 26  1  0  0  0  0
 16 38  1  6  0  0  0
 17 39  1  0  0  0  0
 18 25  1  0  0  0  0
 18 40  1  0  0  0  0
 18 41  1  0  0  0  0
 19 25  2  0  0  0  0
 19 27  1  0  0  0  0
 20 21  1  0  0  0  0
 20 42  1  0  0  0  0
 21 23  1  0  0  0  0
 21 43  1  0  0  0  0
 22 24  1  0  0  0  0
 22 28  1  1  0  0  0
 22 44  1  0  0  0  0
 23 24  1  0  0  0  0
 23 45  1  0  0  0  0
 24 46  1  0  0  0  0
 25 47  1  0  0  0  0
 26 29  2  0  0  0  0
 26 32  1  0  0  0  0
 27 50  1  0  0  0  0
 27 51  1  0  0  0  0
 28 48  1  0  0  0  0
 28 49  1  0  0  0  0
 29 52  1  0  0  0  0
 30 31  1  0  0  0  0
 30 53  1  0  0  0  0
 31 33  1  0  0  0  0
 31 54  1  0  0  0  0
 33 34  1  0  0  0  0
 33 55  1  0  0  0  0
 34 35  1  0  0  0  0
 34 56  1  0  0  0  0
 35 60  1  0  0  0  0
 35 61  1  0  0  0  0
 36 66  1  0  0  0  0
 36 67  1  0  0  0  0
 36 68  1  0  0  0  0
M  END
> <PUBCHEM_COMPOUND_CID>
71552451

> <PUBCHEM_COMPOUND_CANONICALIZED>
1

> <PUBCHEM_CACTVS_COMPLEXITY>
847

> <PUBCHEM_CACTVS_HBOND_ACCEPTOR>
14

> <PUBCHEM_CACTVS_HBOND_DONOR>
7

> <PUBCHEM_CACTVS_ROTATABLE_BOND>
8

> <PUBCHEM_CACTVS_SUBSKEYS>
AAADcfB4PAAAAAAAAAAAAAAAAAAAAQAAAAAkSIAAAAAAAEAAAAAAGgAACAAADRSwgAMCCAAABgCIAiDSCAAACAAgIAAACAEAAEgRFBIAIQAiUAAFwAAPMIPIbAwOgAAAAAAAAAAAAAAAAAAAAAAAAAAAAA==

> <PUBCHEM_IUPAC_OPENEYE_NAME>
methyl (1S,4aS,7aS)-7-(hydroxymethyl)-1-[(2S,3R,4S,5S,6R)-3,4,5-trihydroxy-6-[[(2R,3R,4S,5R)-3,4,5-trihydroxytetrahydropyran-2-yl]oxymethyl]tetrahydropyran-2-yl]oxy-1,4a,5,7a-tetrahydrocyclopenta[c]pyran-4-carboxylate

> <PUBCHEM_IUPAC_CAS_NAME>
(1S,4aS,7aS)-7-(hydroxymethyl)-1-[[(2S,3R,4S,5S,6R)-3,4,5-trihydroxy-6-[[(2R,3R,4S,5R)-3,4,5-trihydroxy-2-oxanyl]oxymethyl]-2-oxanyl]oxy]-1,4a,5,7a-tetrahydrocyclopenta[c]pyran-4-carboxylic acid methyl ester

> <PUBCHEM_IUPAC_NAME_MARKUP>
methyl (1<I>S</I>,4<I>a</I><I>S</I>,7<I>a</I><I>S</I>)-7-(hydroxymethyl)-1-[(2<I>S</I>,3<I>R</I>,4<I>S</I>,5<I>S</I>,6<I>R</I>)-3,4,5-trihydroxy-6-[[(2<I>R</I>,3<I>R</I>,4<I>S</I>,5<I>R</I>)-3,4,5-trihydroxyoxan-2-yl]oxymethyl]oxan-2-yl]oxy-1,4<I>a</I>,5,7<I>a</I>-tetrahydrocyclopenta[c]pyran-4-carboxylate

> <PUBCHEM_IUPAC_NAME>
methyl (1S,4aS,7aS)-7-(hydroxymethyl)-1-[(2S,3R,4S,5S,6R)-3,4,5-trihydroxy-6-[[(2R,3R,4S,5R)-3,4,5-trihydroxyoxan-2-yl]oxymethyl]oxan-2-yl]oxy-1,4a,5,7a-tetrahydrocyclopenta[c]pyran-4-carboxylate

> <PUBCHEM_IUPAC_SYSTEMATIC_NAME>
methyl (1S,4aS,7aS)-7-(hydroxymethyl)-1-[(2S,3R,4S,5S,6R)-3,4,5-tris(oxidanyl)-6-[[(2R,3R,4S,5R)-3,4,5-tris(oxidanyl)oxan-2-yl]oxymethyl]oxan-2-yl]oxy-1,4a,5,7a-tetrahydrocyclopenta[c]pyran-4-carboxylate

> <PUBCHEM_IUPAC_TRADITIONAL_NAME>
(1S,4aS,7aS)-7-methylol-1-[(2S,3R,4S,5S,6R)-3,4,5-trihydroxy-6-[[(2R,3R,4S,5R)-3,4,5-trihydroxytetrahydropyran-2-yl]oxymethyl]tetrahydropyran-2-yl]oxy-1,4a,5,7a-tetrahydrocyclopenta[c]pyran-4-carboxylic acid methyl ester

> <PUBCHEM_IUPAC_INCHI>
InChI=1S/C22H32O14/c1-31-19(30)10-5-32-20(13-8(4-23)2-3-9(10)13)36-22-18(29)16(27)15(26)12(35-22)7-34-21-17(28)14(25)11(24)6-33-21/h2,5,9,11-18,20-29H,3-4,6-7H2,1H3/t9-,11-,12-,13-,14+,15-,16+,17-,18-,20+,21-,22+/m1/s1

> <PUBCHEM_IUPAC_INCHIKEY>
CZGSZFUIWKITKI-GGOJMINCSA-N

> <PUBCHEM_XLOGP3_AA>
-4.4

> <PUBCHEM_EXACT_MASS>
520.17920569

> <PUBCHEM_MOLECULAR_FORMULA>
C22H32O14

> <PUBCHEM_MOLECULAR_WEIGHT>
520.5

> <PUBCHEM_OPENEYE_CAN_SMILES>
COC(=O)C1=COC(C2C1CC=C2CO)OC3C(C(C(C(O3)COC4C(C(C(CO4)O)O)O)O)O)O

> <PUBCHEM_OPENEYE_ISO_SMILES>
COC(=O)C1=CO[C@H]([C@H]2[C@@H]1CC=C2CO)O[C@H]3[C@@H]([C@H]([C@@H]([C@H](O3)CO[C@@H]4[C@@H]([C@H]([C@@H](CO4)O)O)O)O)O)O

> <PUBCHEM_CACTVS_TPSA>
214

> <PUBCHEM_MONOISOTOPIC_WEIGHT>
520.17920569

> <PUBCHEM_TOTAL_CHARGE>
0

> <PUBCHEM_HEAVY_ATOM_COUNT>
36

> <PUBCHEM_ATOM_DEF_STEREO_COUNT>
12

> <PUBCHEM_ATOM_UDEF_STEREO_COUNT>
0

> <PUBCHEM_BOND_DEF_STEREO_COUNT>
0

> <PUBCHEM_BOND_UDEF_STEREO_COUNT>
0

> <PUBCHEM_ISOTOPIC_ATOM_COUNT>
0

> <PUBCHEM_COMPONENT_COUNT>
1

> <PUBCHEM_CACTVS_TAUTO_COUNT>
-1

> <PUBCHEM_COORDINATE_TYPE>
1
5
255

> <PUBCHEM_BONDANNOTATIONS>
17  1  6
20  1  5
31  11  6
33  12  5
34  13  6
15  37  6
16  38  6
22  28  5
30  4  6
21  5  6
23  6  5
24  7  6

$$$$
