 
  -OEChem-10192103362D

 28 29  0     1  0  0  0  0  0999 V2000
    2.5000   -1.6012    0.0000 O   0  0  0  0  0  0  0  0  0  0  0  0
    5.3147   -0.3988    0.0000 O   0  0  0  0  0  0  0  0  0  0  0  0
    6.1808    1.1012    0.0000 O   0  0  0  0  0  0  0  0  0  0  0  0
    2.6691    0.0080    0.0000 N   0  0  0  0  0  0  0  0  0  0  0  0
    7.0468   -0.3988    0.0000 N   0  0  0  0  0  0  0  0  0  0  0  0
    8.7788   -0.3988    0.0000 N   0  0  0  0  0  0  0  0  0  0  0  0
    3.5827   -0.3988    0.0000 C   0  0  3  0  0  0  0  0  0  0  0  0
    3.4782   -1.3933    0.0000 C   0  0  0  0  0  0  0  0  0  0  0  0
    4.4487    0.1012    0.0000 C   0  0  0  0  0  0  0  0  0  0  0  0
    2.0000   -0.7352    0.0000 C   0  4  0  0  0  0  0  0  0  0  0  0
    6.1808    0.1012    0.0000 C   0  0  0  0  0  0  0  0  0  0  0  0
    7.9128    0.1012    0.0000 C   0  0  0  0  0  0  0  0  0  0  0  0
    7.9128    1.1012    0.0000 C   0  0  0  0  0  0  0  0  0  0  0  0
    8.7788    1.6012    0.0000 C   0  0  0  0  0  0  0  0  0  0  0  0
    9.6448    1.1012    0.0000 C   0  0  0  0  0  0  0  0  0  0  0  0
    9.6448    0.1012    0.0000 C   0  0  0  0  0  0  0  0  0  0  0  0
    3.5502    0.2204    0.0000 H   0  0  0  0  0  0  0  0  0  0  0  0
    3.5430   -2.0099    0.0000 H   0  0  0  0  0  0  0  0  0  0  0  0
    4.0982   -1.3933    0.0000 H   0  0  0  0  0  0  0  0  0  0  0  0
    4.8472    0.5762    0.0000 H   0  0  0  0  0  0  0  0  0  0  0  0
    4.0502    0.5762    0.0000 H   0  0  0  0  0  0  0  0  0  0  0  0
    2.5402    0.6144    0.0000 H   0  0  0  0  0  0  0  0  0  0  0  0
    1.3834   -0.6704    0.0000 H   0  0  0  0  0  0  0  0  0  0  0  0
    7.0468   -1.0188    0.0000 H   0  0  0  0  0  0  0  0  0  0  0  0
    7.3759    1.4112    0.0000 H   0  0  0  0  0  0  0  0  0  0  0  0
    8.7788    2.2212    0.0000 H   0  0  0  0  0  0  0  0  0  0  0  0
   10.1818    1.4112    0.0000 H   0  0  0  0  0  0  0  0  0  0  0  0
   10.1818   -0.2088    0.0000 H   0  0  0  0  0  0  0  0  0  0  0  0
  1  8  1  0  0  0  0
  1 10  1  0  0  0  0
  2  9  1  0  0  0  0
  2 11  1  0  0  0  0
  3 11  2  0  0  0  0
  4  7  1  0  0  0  0
  4 10  1  0  0  0  0
  4 22  1  0  0  0  0
  5 11  1  0  0  0  0
  5 12  1  0  0  0  0
  5 24  1  0  0  0  0
  6 12  1  0  0  0  0
  6 16  2  0  0  0  0
  7  8  1  0  0  0  0
  7  9  1  0  0  0  0
  7 17  1  0  0  0  0
  8 18  1  0  0  0  0
  8 19  1  0  0  0  0
  9 20  1  0  0  0  0
  9 21  1  0  0  0  0
 10 23  1  0  0  0  0
 12 13  2  0  0  0  0
 13 14  1  0  0  0  0
 13 25  1  0  0  0  0
 14 15  2  0  0  0  0
 14 26  1  0  0  0  0
 15 16  1  0  0  0  0
 15 27  1  0  0  0  0
 16 28  1  0  0  0  0
M  RAD  1  10   2
M  END
> <PUBCHEM_COMPOUND_CID>
59694817

> <PUBCHEM_COMPOUND_CANONICALIZED>
1

> <PUBCHEM_CACTVS_COMPLEXITY>
237

> <PUBCHEM_CACTVS_HBOND_ACCEPTOR>
5

> <PUBCHEM_CACTVS_HBOND_DONOR>
2

> <PUBCHEM_CACTVS_ROTATABLE_BOND>
4

> <PUBCHEM_CACTVS_SUBSKEYS>
AAADccBzMAAAAAAAAAAAAAAAAAAAAWAAAAAsAAAAAAAAAAABgAAAHgAQAAAACCjhkgY9uJLIFACoADJnfACCgCkxAiAJ2KA4ZJmKIOLAkZGNIAhplQLYyCYQAAAAAAAAAAAAAAAAAAAAAAAAAAAAAAAAAA==

> <PUBCHEM_IUPAC_INCHI>
InChI=1S/C10H12N3O3/c14-10(13-9-3-1-2-4-11-9)16-6-8-5-15-7-12-8/h1-4,7-8,12H,5-6H2,(H,11,13,14)

> <PUBCHEM_IUPAC_INCHIKEY>
KXNUMSAHGHRIQK-UHFFFAOYSA-N

> <PUBCHEM_XLOGP3_AA>
0.1

> <PUBCHEM_EXACT_MASS>
222.08786625

> <PUBCHEM_MOLECULAR_FORMULA>
C10H12N3O3

> <PUBCHEM_MOLECULAR_WEIGHT>
222.22

> <PUBCHEM_OPENEYE_CAN_SMILES>
C1C(N[CH]O1)COC(=O)NC2=CC=CC=N2

> <PUBCHEM_OPENEYE_ISO_SMILES>
C1C(N[CH]O1)COC(=O)NC2=CC=CC=N2

> <PUBCHEM_CACTVS_TPSA>
72.5

> <PUBCHEM_MONOISOTOPIC_WEIGHT>
222.08786625

> <PUBCHEM_TOTAL_CHARGE>
0

> <PUBCHEM_HEAVY_ATOM_COUNT>
16

> <PUBCHEM_ATOM_DEF_STEREO_COUNT>
0

> <PUBCHEM_ATOM_UDEF_STEREO_COUNT>
1

> <PUBCHEM_BOND_DEF_STEREO_COUNT>
0

> <PUBCHEM_BOND_UDEF_STEREO_COUNT>
0

> <PUBCHEM_ISOTOPIC_ATOM_COUNT>
0

> <PUBCHEM_COMPONENT_COUNT>
1

> <PUBCHEM_CACTVS_TAUTO_COUNT>
-1

> <PUBCHEM_COORDINATE_TYPE>
1
5
255

> <PUBCHEM_BONDANNOTATIONS>
12  13  8
13  14  8
14  15  8
15  16  8
6  12  8
6  16  8
7  9  3

$$$$
