 
  -OEChem-10192104252D

 68 68  0     1  0  0  0  0  0999 V2000
    4.7770   -2.2130    0.0000 O   0  0  0  0  0  0  0  0  0  0  0  0
    6.7985    0.7725    0.0000 O   0  0  0  0  0  0  0  0  0  0  0  0
    9.8596   -1.1327    0.0000 O   0  0  0  0  0  0  0  0  0  0  0  0
   12.5049   -1.0816    0.0000 O   0  0  0  0  0  0  0  0  0  0  0  0
   10.8107   -1.4417    0.0000 O   0  0  0  0  0  0  0  0  0  0  0  0
    8.5812   -3.4491    0.0000 O   0  0  0  0  0  0  0  0  0  0  0  0
    9.7711    3.4491    0.0000 O   0  0  0  0  0  0  0  0  0  0  0  0
    6.8870   -3.8092    0.0000 O   0  0  0  0  0  0  0  0  0  0  0  0
    8.0769    3.0890    0.0000 O   0  0  0  0  0  0  0  0  0  0  0  0
    2.8090   -1.5136    0.0000 N   0  0  0  0  0  0  0  0  0  0  0  0
    5.3122   -0.5657    0.0000 N   0  0  0  0  0  0  0  0  0  0  0  0
    7.9575   -0.5146    0.0000 N   0  0  0  0  0  0  0  0  0  0  0  0
   10.3948    0.5146    0.0000 N   0  0  0  0  0  0  0  0  0  0  0  0
    3.6180   -0.9258    0.0000 C   0  0  3  0  0  0  0  0  0  0  0  0
    3.3090    0.0252    0.0000 C   0  0  0  0  0  0  0  0  0  0  0  0
    2.3090    0.0252    0.0000 C   0  0  0  0  0  0  0  0  0  0  0  0
    2.0000   -0.9258    0.0000 C   0  0  0  0  0  0  0  0  0  0  0  0
    4.5691   -1.2348    0.0000 C   0  0  0  0  0  0  0  0  0  0  0  0
    6.2633   -0.8747    0.0000 C   0  0  3  0  0  0  0  0  0  0  0  0
   12.0890    0.8747    0.0000 C   0  0  3  0  0  0  0  0  0  0  0  0
   11.3459    0.2056    0.0000 C   0  0  3  0  0  0  0  0  0  0  0  0
    8.7006    0.1545    0.0000 C   0  0  3  0  0  0  0  0  0  0  0  0
    6.4712   -1.8529    0.0000 C   0  0  0  0  0  0  0  0  0  0  0  0
    7.0064   -0.2056    0.0000 C   0  0  0  0  0  0  0  0  0  0  0  0
   13.0401    0.5657    0.0000 C   0  0  0  0  0  0  0  0  0  0  0  0
    8.4927    1.1327    0.0000 C   0  0  0  0  0  0  0  0  0  0  0  0
    9.6517   -0.1545    0.0000 C   0  0  0  0  0  0  0  0  0  0  0  0
   11.8811    1.8529    0.0000 C   0  0  0  0  0  0  0  0  0  0  0  0
    7.4223   -2.1619    0.0000 C   0  0  0  0  0  0  0  0  0  0  0  0
    9.2359    1.8018    0.0000 C   0  0  0  0  0  0  0  0  0  0  0  0
   11.5538   -0.7725    0.0000 C   0  0  0  0  0  0  0  0  0  0  0  0
   13.7832    1.2348    0.0000 C   0  0  0  0  0  0  0  0  0  0  0  0
    7.6302   -3.1400    0.0000 C   0  0  0  0  0  0  0  0  0  0  0  0
    9.0280    2.7799    0.0000 C   0  0  0  0  0  0  0  0  0  0  0  0
    3.7150   -1.5382    0.0000 H   0  0  0  0  0  0  0  0  0  0  0  0
    3.9155    0.1541    0.0000 H   0  0  0  0  0  0  0  0  0  0  0  0
    3.2442    0.6418    0.0000 H   0  0  0  0  0  0  0  0  0  0  0  0
    2.3738    0.6418    0.0000 H   0  0  0  0  0  0  0  0  0  0  0  0
    1.7026    0.1541    0.0000 H   0  0  0  0  0  0  0  0  0  0  0  0
    1.4336   -0.6737    0.0000 H   0  0  0  0  0  0  0  0  0  0  0  0
    1.6900   -1.4628    0.0000 H   0  0  0  0  0  0  0  0  0  0  0  0
    2.8090   -2.1336    0.0000 H   0  0  0  0  0  0  0  0  0  0  0  0
    6.1344   -0.2683    0.0000 H   0  0  0  0  0  0  0  0  0  0  0  0
   11.4994    1.0663    0.0000 H   0  0  0  0  0  0  0  0  0  0  0  0
   11.9356    0.0140    0.0000 H   0  0  0  0  0  0  0  0  0  0  0  0
    5.1833    0.0407    0.0000 H   0  0  0  0  0  0  0  0  0  0  0  0
    8.1110    0.3461    0.0000 H   0  0  0  0  0  0  0  0  0  0  0  0
    5.8516   -1.8745    0.0000 H   0  0  0  0  0  0  0  0  0  0  0  0
    6.3849   -2.4668    0.0000 H   0  0  0  0  0  0  0  0  0  0  0  0
   12.7490    0.0183    0.0000 H   0  0  0  0  0  0  0  0  0  0  0  0
   13.5287    0.1840    0.0000 H   0  0  0  0  0  0  0  0  0  0  0  0
    8.1642    1.6584    0.0000 H   0  0  0  0  0  0  0  0  0  0  0  0
    7.9179    0.9004    0.0000 H   0  0  0  0  0  0  0  0  0  0  0  0
    8.0864   -1.1211    0.0000 H   0  0  0  0  0  0  0  0  0  0  0  0
   10.2659    1.1211    0.0000 H   0  0  0  0  0  0  0  0  0  0  0  0
   12.4876    1.9818    0.0000 H   0  0  0  0  0  0  0  0  0  0  0  0
   11.7522    2.4593    0.0000 H   0  0  0  0  0  0  0  0  0  0  0  0
   11.2747    1.7240    0.0000 H   0  0  0  0  0  0  0  0  0  0  0  0
    8.0419   -2.1403    0.0000 H   0  0  0  0  0  0  0  0  0  0  0  0
    7.5086   -1.5479    0.0000 H   0  0  0  0  0  0  0  0  0  0  0  0
    9.5644    1.2760    0.0000 H   0  0  0  0  0  0  0  0  0  0  0  0
    9.8107    2.0340    0.0000 H   0  0  0  0  0  0  0  0  0  0  0  0
   14.1981    0.7741    0.0000 H   0  0  0  0  0  0  0  0  0  0  0  0
   14.2440    1.6497    0.0000 H   0  0  0  0  0  0  0  0  0  0  0  0
   13.3684    1.6956    0.0000 H   0  0  0  0  0  0  0  0  0  0  0  0
   12.6338   -1.6880    0.0000 H   0  0  0  0  0  0  0  0  0  0  0  0
    8.7101   -4.0555    0.0000 H   0  0  0  0  0  0  0  0  0  0  0  0
    9.6422    4.0555    0.0000 H   0  0  0  0  0  0  0  0  0  0  0  0
  1 18  2  0  0  0  0
  2 24  2  0  0  0  0
  3 27  2  0  0  0  0
  4 31  1  0  0  0  0
  4 66  1  0  0  0  0
  5 31  2  0  0  0  0
  6 33  1  0  0  0  0
  6 67  1  0  0  0  0
  7 34  1  0  0  0  0
  7 68  1  0  0  0  0
  8 33  2  0  0  0  0
  9 34  2  0  0  0  0
 10 14  1  0  0  0  0
 10 17  1  0  0  0  0
 10 42  1  0  0  0  0
 11 18  1  0  0  0  0
 11 19  1  0  0  0  0
 11 46  1  0  0  0  0
 12 22  1  0  0  0  0
 12 24  1  0  0  0  0
 12 54  1  0  0  0  0
 13 21  1  0  0  0  0
 13 27  1  0  0  0  0
 13 55  1  0  0  0  0
 14 15  1  0  0  0  0
 14 18  1  0  0  0  0
 14 35  1  0  0  0  0
 15 16  1  0  0  0  0
 15 36  1  0  0  0  0
 15 37  1  0  0  0  0
 16 17  1  0  0  0  0
 16 38  1  0  0  0  0
 16 39  1  0  0  0  0
 17 40  1  0  0  0  0
 17 41  1  0  0  0  0
 19 23  1  0  0  0  0
 19 24  1  0  0  0  0
 19 43  1  0  0  0  0
 20 21  1  0  0  0  0
 20 25  1  0  0  0  0
 20 28  1  0  0  0  0
 20 44  1  0  0  0  0
 21 31  1  0  0  0  0
 21 45  1  0  0  0  0
 22 26  1  0  0  0  0
 22 27  1  0  0  0  0
 22 47  1  0  0  0  0
 23 29  1  0  0  0  0
 23 48  1  0  0  0  0
 23 49  1  0  0  0  0
 25 32  1  0  0  0  0
 25 50  1  0  0  0  0
 25 51  1  0  0  0  0
 26 30  1  0  0  0  0
 26 52  1  0  0  0  0
 26 53  1  0  0  0  0
 28 56  1  0  0  0  0
 28 57  1  0  0  0  0
 28 58  1  0  0  0  0
 29 33  1  0  0  0  0
 29 59  1  0  0  0  0
 29 60  1  0  0  0  0
 30 34  1  0  0  0  0
 30 61  1  0  0  0  0
 30 62  1  0  0  0  0
 32 63  1  0  0  0  0
 32 64  1  0  0  0  0
 32 65  1  0  0  0  0
M  END
> <PUBCHEM_COMPOUND_CID>
20011558

> <PUBCHEM_COMPOUND_CANONICALIZED>
1

> <PUBCHEM_CACTVS_COMPLEXITY>
773

> <PUBCHEM_CACTVS_HBOND_ACCEPTOR>
10

> <PUBCHEM_CACTVS_HBOND_DONOR>
7

> <PUBCHEM_CACTVS_ROTATABLE_BOND>
15

> <PUBCHEM_CACTVS_SUBSKEYS>
AAADcfB7vAAAAAAAAAAAAAAAAAAAAWAAAAAAAAAAAAAAAAAAAAAAHgAQCAAADSjBgAQCCALAAgAIAAGQGAAAAAAAAAAAAIGIAAACQBIAgCAUQAAEFgCQAAC8FwIKAAAAAAAAAAAAAAAAAAAAAAAAAAAAAA==

> <PUBCHEM_IUPAC_OPENEYE_NAME>
2-[[4-carboxy-2-[[4-carboxy-2-(pyrrolidine-2-carbonylamino)butanoyl]amino]butanoyl]amino]-3-methyl-pentanoic acid

> <PUBCHEM_IUPAC_CAS_NAME>
2-[[4-carboxy-2-[[4-carboxy-1-oxo-2-[[oxo(2-pyrrolidinyl)methyl]amino]butyl]amino]-1-oxobutyl]amino]-3-methylpentanoic acid

> <PUBCHEM_IUPAC_NAME_MARKUP>
2-[[4-carboxy-2-[[4-carboxy-2-(pyrrolidine-2-carbonylamino)butanoyl]amino]butanoyl]amino]-3-methylpentanoic acid

> <PUBCHEM_IUPAC_NAME>
2-[[4-carboxy-2-[[4-carboxy-2-(pyrrolidine-2-carbonylamino)butanoyl]amino]butanoyl]amino]-3-methylpentanoic acid

> <PUBCHEM_IUPAC_SYSTEMATIC_NAME>
3-methyl-2-[[5-oxidanyl-5-oxidanylidene-2-[[5-oxidanyl-5-oxidanylidene-2-(pyrrolidin-2-ylcarbonylamino)pentanoyl]amino]pentanoyl]amino]pentanoic acid

> <PUBCHEM_IUPAC_TRADITIONAL_NAME>
2-[[4-carboxy-2-[[4-carboxy-2-(prolylamino)butanoyl]amino]butanoyl]amino]-3-methyl-valeric acid

> <PUBCHEM_IUPAC_INCHI>
InChI=1S/C21H34N4O9/c1-3-11(2)17(21(33)34)25-20(32)14(7-9-16(28)29)24-19(31)13(6-8-15(26)27)23-18(30)12-5-4-10-22-12/h11-14,17,22H,3-10H2,1-2H3,(H,23,30)(H,24,31)(H,25,32)(H,26,27)(H,28,29)(H,33,34)

> <PUBCHEM_IUPAC_INCHIKEY>
FOGGNQFDMPHSJT-UHFFFAOYSA-N

> <PUBCHEM_XLOGP3>
-4.1

> <PUBCHEM_EXACT_MASS>
486.23257867

> <PUBCHEM_MOLECULAR_FORMULA>
C21H34N4O9

> <PUBCHEM_MOLECULAR_WEIGHT>
486.5

> <PUBCHEM_OPENEYE_CAN_SMILES>
CCC(C)C(C(=O)O)NC(=O)C(CCC(=O)O)NC(=O)C(CCC(=O)O)NC(=O)C1CCCN1

> <PUBCHEM_OPENEYE_ISO_SMILES>
CCC(C)C(C(=O)O)NC(=O)C(CCC(=O)O)NC(=O)C(CCC(=O)O)NC(=O)C1CCCN1

> <PUBCHEM_CACTVS_TPSA>
211

> <PUBCHEM_MONOISOTOPIC_WEIGHT>
486.23257867

> <PUBCHEM_TOTAL_CHARGE>
0

> <PUBCHEM_HEAVY_ATOM_COUNT>
34

> <PUBCHEM_ATOM_DEF_STEREO_COUNT>
0

> <PUBCHEM_ATOM_UDEF_STEREO_COUNT>
5

> <PUBCHEM_BOND_DEF_STEREO_COUNT>
0

> <PUBCHEM_BOND_UDEF_STEREO_COUNT>
0

> <PUBCHEM_ISOTOPIC_ATOM_COUNT>
0

> <PUBCHEM_COMPONENT_COUNT>
1

> <PUBCHEM_CACTVS_TAUTO_COUNT>
-1

> <PUBCHEM_COORDINATE_TYPE>
1
5
255

> <PUBCHEM_BONDANNOTATIONS>
14  18  3
19  23  3
20  28  3
21  31  3
22  26  3

$$$$
