 
  -OEChem-10192104302D

 60 62  0     1  0  0  0  0  0999 V2000
    8.9282   -3.5000    0.0000 O   0  0  0  0  0  0  0  0  0  0  0  0
   10.6882   -1.4653    0.0000 O   0  0  0  0  0  0  0  0  0  0  0  0
    8.9282   -0.5000    0.0000 O   0  0  0  0  0  0  0  0  0  0  0  0
   11.5942   -3.0208    0.0000 O   0  0  0  0  0  0  0  0  0  0  0  0
    7.1962   -1.5000    0.0000 O   0  0  0  0  0  0  0  0  0  0  0  0
    7.1962   -3.5000    0.0000 O   0  0  0  0  0  0  0  0  0  0  0  0
    7.1962    3.5000    0.0000 O   0  0  0  0  0  0  0  0  0  0  0  0
    2.8660   -1.0000    0.0000 O   0  0  0  0  0  0  0  0  0  0  0  0
    8.9282    3.5000    0.0000 O   0  0  0  0  0  0  0  0  0  0  0  0
    3.7320    0.5000    0.0000 O   0  0  0  0  0  0  0  0  0  0  0  0
    9.7942   -2.0000    0.0000 C   0  0  1  0  0  0  0  0  0  0  0  0
    8.9282   -1.5000    0.0000 C   0  0  1  0  0  0  0  0  0  0  0  0
    9.7942   -3.0000    0.0000 C   0  0  1  0  0  0  0  0  0  0  0  0
    8.0622   -2.0000    0.0000 C   0  0  2  0  0  0  0  0  0  0  0  0
    8.0622   -3.0000    0.0000 C   0  0  2  0  0  0  0  0  0  0  0  0
   10.6882   -3.5347    0.0000 C   0  0  0  0  0  0  0  0  0  0  0  0
   11.5942   -1.9792    0.0000 C   0  0  3  0  0  0  0  0  0  0  0  0
   12.4583   -1.4759    0.0000 C   0  0  0  0  0  0  0  0  0  0  0  0
    8.0622    0.0000    0.0000 C   0  0  0  0  0  0  0  0  0  0  0  0
    6.3301   -2.0000    0.0000 C   0  0  0  0  0  0  0  0  0  0  0  0
    7.1962   -4.5000    0.0000 C   0  0  0  0  0  0  0  0  0  0  0  0
   13.3263   -1.9725    0.0000 C   0  0  0  0  0  0  0  0  0  0  0  0
   12.4545   -0.4759    0.0000 C   0  0  0  0  0  0  0  0  0  0  0  0
    8.0622    1.0000    0.0000 C   0  0  0  0  0  0  0  0  0  0  0  0
   14.1904   -1.4692    0.0000 C   0  0  0  0  0  0  0  0  0  0  0  0
   13.3186    0.0275    0.0000 C   0  0  0  0  0  0  0  0  0  0  0  0
    5.4641   -1.5000    0.0000 C   0  0  0  0  0  0  0  0  0  0  0  0
   14.1865   -0.4692    0.0000 C   0  0  0  0  0  0  0  0  0  0  0  0
    8.0622    2.0000    0.0000 C   0  0  0  0  0  0  0  0  0  0  0  0
    4.5981   -1.0000    0.0000 C   0  0  0  0  0  0  0  0  0  0  0  0
    8.0622    3.0000    0.0000 C   0  0  0  0  0  0  0  0  0  0  0  0
    3.7320   -0.5000    0.0000 C   0  0  0  0  0  0  0  0  0  0  0  0
    7.1962    4.5000    0.0000 C   0  0  0  0  0  0  0  0  0  0  0  0
    2.0000   -0.5000    0.0000 C   0  0  0  0  0  0  0  0  0  0  0  0
   10.5336   -2.4193    0.0000 H   0  0  0  0  0  0  0  0  0  0  0  0
    9.4651   -1.1900    0.0000 H   0  0  0  0  0  0  0  0  0  0  0  0
    9.7877   -3.8500    0.0000 H   0  0  0  0  0  0  0  0  0  0  0  0
    8.0622   -1.3800    0.0000 H   0  0  0  0  0  0  0  0  0  0  0  0
    8.0622   -3.6200    0.0000 H   0  0  0  0  0  0  0  0  0  0  0  0
   10.2836   -4.0044    0.0000 H   0  0  0  0  0  0  0  0  0  0  0  0
   11.0818   -4.0137    0.0000 H   0  0  0  0  0  0  0  0  0  0  0  0
   11.5907   -1.3592    0.0000 H   0  0  0  0  0  0  0  0  0  0  0  0
    7.4516    0.1077    0.0000 H   0  0  0  0  0  0  0  0  0  0  0  0
    7.8501   -0.5826    0.0000 H   0  0  0  0  0  0  0  0  0  0  0  0
    5.9316   -2.4750    0.0000 H   0  0  0  0  0  0  0  0  0  0  0  0
    6.7287   -2.4750    0.0000 H   0  0  0  0  0  0  0  0  0  0  0  0
    6.5762   -4.5000    0.0000 H   0  0  0  0  0  0  0  0  0  0  0  0
    7.1962   -5.1200    0.0000 H   0  0  0  0  0  0  0  0  0  0  0  0
    7.8162   -4.5000    0.0000 H   0  0  0  0  0  0  0  0  0  0  0  0
   13.3287   -2.5925    0.0000 H   0  0  0  0  0  0  0  0  0  0  0  0
   11.9163   -0.1679    0.0000 H   0  0  0  0  0  0  0  0  0  0  0  0
   14.7285   -1.7771    0.0000 H   0  0  0  0  0  0  0  0  0  0  0  0
   13.3162    0.6475    0.0000 H   0  0  0  0  0  0  0  0  0  0  0  0
   14.7222   -0.1571    0.0000 H   0  0  0  0  0  0  0  0  0  0  0  0
    7.8162    4.5000    0.0000 H   0  0  0  0  0  0  0  0  0  0  0  0
    7.1962    5.1200    0.0000 H   0  0  0  0  0  0  0  0  0  0  0  0
    6.5762    4.5000    0.0000 H   0  0  0  0  0  0  0  0  0  0  0  0
    2.3100    0.0369    0.0000 H   0  0  0  0  0  0  0  0  0  0  0  0
    1.4631   -0.1900    0.0000 H   0  0  0  0  0  0  0  0  0  0  0  0
    1.6900   -1.0369    0.0000 H   0  0  0  0  0  0  0  0  0  0  0  0
  1 13  1  0  0  0  0
  1 15  1  0  0  0  0
  2 11  1  0  0  0  0
  2 17  1  0  0  0  0
 12  3  1  1  0  0  0
  3 19  1  0  0  0  0
  4 16  1  0  0  0  0
  4 17  1  0  0  0  0
 14  5  1  6  0  0  0
  5 20  1  0  0  0  0
 15  6  1  6  0  0  0
  6 21  1  0  0  0  0
  7 31  1  0  0  0  0
  7 33  1  0  0  0  0
  8 32  1  0  0  0  0
  8 34  1  0  0  0  0
  9 31  2  0  0  0  0
 10 32  2  0  0  0  0
 11 12  1  0  0  0  0
 11 13  1  0  0  0  0
 11 35  1  1  0  0  0
 12 14  1  0  0  0  0
 12 36  1  0  0  0  0
 13 16  1  0  0  0  0
 13 37  1  6  0  0  0
 14 15  1  0  0  0  0
 14 38  1  0  0  0  0
 15 39  1  0  0  0  0
 16 40  1  0  0  0  0
 16 41  1  0  0  0  0
 17 18  1  0  0  0  0
 17 42  1  0  0  0  0
 18 22  2  0  0  0  0
 18 23  1  0  0  0  0
 19 24  1  0  0  0  0
 19 43  1  0  0  0  0
 19 44  1  0  0  0  0
 20 27  1  0  0  0  0
 20 45  1  0  0  0  0
 20 46  1  0  0  0  0
 21 47  1  0  0  0  0
 21 48  1  0  0  0  0
 21 49  1  0  0  0  0
 22 25  1  0  0  0  0
 22 50  1  0  0  0  0
 23 26  2  0  0  0  0
 23 51  1  0  0  0  0
 24 29  3  0  0  0  0
 25 28  2  0  0  0  0
 25 52  1  0  0  0  0
 26 28  1  0  0  0  0
 26 53  1  0  0  0  0
 27 30  3  0  0  0  0
 28 54  1  0  0  0  0
 29 31  1  0  0  0  0
 30 32  1  0  0  0  0
 33 55  1  0  0  0  0
 33 56  1  0  0  0  0
 33 57  1  0  0  0  0
 34 58  1  0  0  0  0
 34 59  1  0  0  0  0
 34 60  1  0  0  0  0
M  END
> <PUBCHEM_COMPOUND_CID>
102382410

> <PUBCHEM_COMPOUND_CANONICALIZED>
1

> <PUBCHEM_CACTVS_COMPLEXITY>
824

> <PUBCHEM_CACTVS_HBOND_ACCEPTOR>
10

> <PUBCHEM_CACTVS_HBOND_DONOR>
0

> <PUBCHEM_CACTVS_ROTATABLE_BOND>
8

> <PUBCHEM_CACTVS_SUBSKEYS>
AAADceB4PAAAAAAAAAAAAAAAAAAAAAAAAAA0SIAAAAAAAACRAAAAGgAAAAAADBSwmAMyCIAABADIEiDSCAACAAAgAAAIiAAACIgZJiKAMRiiMAAlwAEOqAfA4CwOAAAAAAAAAAAAAAAAAAAAAAAAAAAAAA==

> <PUBCHEM_IUPAC_OPENEYE_NAME>
methyl 4-[[(4aR,6S,7R,8S,8aR)-6-methoxy-7-(4-methoxy-4-oxo-but-2-ynoxy)-2-phenyl-4,4a,6,7,8,8a-hexahydropyrano[3,2-d][1,3]dioxin-8-yl]oxy]but-2-ynoate

> <PUBCHEM_IUPAC_CAS_NAME>
4-[[(4aR,6S,7R,8S,8aR)-6-methoxy-7-(4-methoxy-4-oxobut-2-ynoxy)-2-phenyl-4,4a,6,7,8,8a-hexahydropyrano[3,2-d][1,3]dioxin-8-yl]oxy]-2-butynoic acid methyl ester

> <PUBCHEM_IUPAC_NAME_MARKUP>
methyl 4-[[(4<I>a</I><I>R</I>,6<I>S</I>,7<I>R</I>,8<I>S</I>,8<I>a</I><I>R</I>)-6-methoxy-7-(4-methoxy-4-oxobut-2-ynoxy)-2-phenyl-4,4<I>a</I>,6,7,8,8<I>a</I>-hexahydropyrano[3,2-d][1,3]dioxin-8-yl]oxy]but-2-ynoate

> <PUBCHEM_IUPAC_NAME>
methyl 4-[[(4aR,6S,7R,8S,8aR)-6-methoxy-7-(4-methoxy-4-oxobut-2-ynoxy)-2-phenyl-4,4a,6,7,8,8a-hexahydropyrano[3,2-d][1,3]dioxin-8-yl]oxy]but-2-ynoate

> <PUBCHEM_IUPAC_SYSTEMATIC_NAME>
methyl 4-[[(4aR,6S,7R,8S,8aR)-6-methoxy-7-(4-methoxy-4-oxidanylidene-but-2-ynoxy)-2-phenyl-4,4a,6,7,8,8a-hexahydropyrano[3,2-d][1,3]dioxin-8-yl]oxy]but-2-ynoate

> <PUBCHEM_IUPAC_TRADITIONAL_NAME>
4-[[(4aR,6S,7R,8S,8aR)-7-(4-keto-4-methoxy-but-2-ynoxy)-6-methoxy-2-phenyl-4,4a,6,7,8,8a-hexahydropyrano[3,2-d][1,3]dioxin-8-yl]oxy]but-2-ynoic acid methyl ester

> <PUBCHEM_IUPAC_INCHI>
InChI=1S/C24H26O10/c1-27-18(25)11-7-13-30-21-20-17(15-32-23(34-20)16-9-5-4-6-10-16)33-24(29-3)22(21)31-14-8-12-19(26)28-2/h4-6,9-10,17,20-24H,13-15H2,1-3H3/t17-,20-,21+,22-,23?,24+/m1/s1

> <PUBCHEM_IUPAC_INCHIKEY>
HIGCFHGOHBHABA-GBRHTZMWSA-N

> <PUBCHEM_XLOGP3_AA>
1.6

> <PUBCHEM_EXACT_MASS>
474.15259702

> <PUBCHEM_MOLECULAR_FORMULA>
C24H26O10

> <PUBCHEM_MOLECULAR_WEIGHT>
474.5

> <PUBCHEM_OPENEYE_CAN_SMILES>
COC1C(C(C2C(O1)COC(O2)C3=CC=CC=C3)OCC#CC(=O)OC)OCC#CC(=O)OC

> <PUBCHEM_OPENEYE_ISO_SMILES>
CO[C@@H]1[C@@H]([C@H]([C@H]2[C@H](O1)COC(O2)C3=CC=CC=C3)OCC#CC(=O)OC)OCC#CC(=O)OC

> <PUBCHEM_CACTVS_TPSA>
108

> <PUBCHEM_MONOISOTOPIC_WEIGHT>
474.15259702

> <PUBCHEM_TOTAL_CHARGE>
0

> <PUBCHEM_HEAVY_ATOM_COUNT>
34

> <PUBCHEM_ATOM_DEF_STEREO_COUNT>
5

> <PUBCHEM_ATOM_UDEF_STEREO_COUNT>
1

> <PUBCHEM_BOND_DEF_STEREO_COUNT>
0

> <PUBCHEM_BOND_UDEF_STEREO_COUNT>
0

> <PUBCHEM_ISOTOPIC_ATOM_COUNT>
0

> <PUBCHEM_COMPONENT_COUNT>
1

> <PUBCHEM_CACTVS_TAUTO_COUNT>
-1

> <PUBCHEM_COORDINATE_TYPE>
1
5
255

> <PUBCHEM_BONDANNOTATIONS>
11  35  5
13  37  6
17  18  3
18  22  8
18  23  8
22  25  8
23  26  8
25  28  8
26  28  8
12  3  5
14  5  6
15  6  6

$$$$
