 
  -OEChem-10192103322D

 58 60  0     1  0  0  0  0  0999 V2000
    5.5929   -3.2276    0.0000 O   0  0  0  0  0  0  0  0  0  0  0  0
    7.0929    1.7161    0.0000 O   0  0  0  0  0  0  0  0  0  0  0  0
    2.5896    0.2591    0.0000 O   0  0  0  0  0  0  0  0  0  0  0  0
    7.4589    0.3500    0.0000 O   0  0  0  0  0  0  0  0  0  0  0  0
    3.1249   -1.3882    0.0000 O   0  0  0  0  0  0  0  0  0  0  0  0
    3.1749    3.2339    0.0000 O   0  0  0  0  0  0  0  0  0  0  0  0
    2.3263    1.7240    0.0000 O   0  0  0  0  0  0  0  0  0  0  0  0
    5.0929   -0.6888    0.0000 C   0  0  3  0  0  0  0  0  0  0  0  0
    5.5929    0.8500    0.0000 C   0  0  2  0  0  0  0  0  0  0  0  0
    4.5929    0.8500    0.0000 C   0  0  3  0  0  0  0  0  0  0  0  0
    5.9019   -0.1010    0.0000 C   0  0  3  0  0  0  0  0  0  0  0  0
    4.2839   -0.1010    0.0000 C   0  0  3  0  0  0  0  0  0  0  0  0
    4.0582    1.7440    0.0000 C   0  0  2  0  0  0  0  0  0  0  0  0
    5.9019   -1.2766    0.0000 C   0  0  0  0  0  0  0  0  0  0  0  0
    4.2839   -1.2766    0.0000 C   0  0  0  0  0  0  0  0  0  0  0  0
    6.1275    1.7440    0.0000 C   0  0  0  0  0  0  0  0  0  0  0  0
    5.5929   -2.2276    0.0000 C   0  0  1  0  0  0  0  0  0  0  0  0
    6.8530   -0.4100    0.0000 C   0  0  0  0  0  0  0  0  0  0  0  0
    4.5721    2.6500    0.0000 C   0  0  0  0  0  0  0  0  0  0  0  0
    5.6137    2.6500    0.0000 C   0  0  0  0  0  0  0  0  0  0  0  0
    4.5929   -2.2276    0.0000 C   0  0  0  0  0  0  0  0  0  0  0  0
    6.5929    0.8500    0.0000 C   0  0  0  0  0  0  0  0  0  0  0  0
    3.3328   -0.4100    0.0000 C   0  0  0  0  0  0  0  0  0  0  0  0
    3.1980    1.2340    0.0000 C   0  0  0  0  0  0  0  0  0  0  0  0
    3.1865    2.2339    0.0000 C   0  0  0  0  0  0  0  0  0  0  0  0
    6.5439   -2.5367    0.0000 C   0  0  0  0  0  0  0  0  0  0  0  0
    7.0609   -1.3882    0.0000 C   0  0  0  0  0  0  0  0  0  0  0  0
    4.0051   -3.0367    0.0000 C   0  0  0  0  0  0  0  0  0  0  0  0
    3.9768    0.7805    0.0000 H   0  0  0  0  0  0  0  0  0  0  0  0
    5.9989   -0.7134    0.0000 H   0  0  0  0  0  0  0  0  0  0  0  0
    3.8454    0.3374    0.0000 H   0  0  0  0  0  0  0  0  0  0  0  0
    6.4683   -1.5288    0.0000 H   0  0  0  0  0  0  0  0  0  0  0  0
    6.2119   -0.7396    0.0000 H   0  0  0  0  0  0  0  0  0  0  0  0
    3.9739   -0.7396    0.0000 H   0  0  0  0  0  0  0  0  0  0  0  0
    3.7175   -1.5288    0.0000 H   0  0  0  0  0  0  0  0  0  0  0  0
    6.5973    1.3394    0.0000 H   0  0  0  0  0  0  0  0  0  0  0  0
    6.6066    2.1376    0.0000 H   0  0  0  0  0  0  0  0  0  0  0  0
    7.4726   -0.3884    0.0000 H   0  0  0  0  0  0  0  0  0  0  0  0
    6.9392    0.2039    0.0000 H   0  0  0  0  0  0  0  0  0  0  0  0
    4.6781    3.2609    0.0000 H   0  0  0  0  0  0  0  0  0  0  0  0
    3.9884    2.8591    0.0000 H   0  0  0  0  0  0  0  0  0  0  0  0
    6.1974    2.8591    0.0000 H   0  0  0  0  0  0  0  0  0  0  0  0
    5.5076    3.2609    0.0000 H   0  0  0  0  0  0  0  0  0  0  0  0
    2.8818    1.7673    0.0000 H   0  0  0  0  0  0  0  0  0  0  0  0
    2.6647    0.9178    0.0000 H   0  0  0  0  0  0  0  0  0  0  0  0
    3.5142    0.7007    0.0000 H   0  0  0  0  0  0  0  0  0  0  0  0
    6.3523   -3.1263    0.0000 H   0  0  0  0  0  0  0  0  0  0  0  0
    7.1336   -2.7282    0.0000 H   0  0  0  0  0  0  0  0  0  0  0  0
    6.7355   -1.9470    0.0000 H   0  0  0  0  0  0  0  0  0  0  0  0
    6.4544   -1.5171    0.0000 H   0  0  0  0  0  0  0  0  0  0  0  0
    7.1898   -1.9946    0.0000 H   0  0  0  0  0  0  0  0  0  0  0  0
    7.6673   -1.2593    0.0000 H   0  0  0  0  0  0  0  0  0  0  0  0
    6.1298   -3.5376    0.0000 H   0  0  0  0  0  0  0  0  0  0  0  0
    3.3885   -2.9718    0.0000 H   0  0  0  0  0  0  0  0  0  0  0  0
    4.2573   -3.6031    0.0000 H   0  0  0  0  0  0  0  0  0  0  0  0
    7.7129    1.7161    0.0000 H   0  0  0  0  0  0  0  0  0  0  0  0
    2.0000    0.0675    0.0000 H   0  0  0  0  0  0  0  0  0  0  0  0
    2.6344    3.5376    0.0000 H   0  0  0  0  0  0  0  0  0  0  0  0
 17  1  1  6  0  0  0
  1 53  1  0  0  0  0
  2 22  1  0  0  0  0
  2 56  1  0  0  0  0
  3 23  1  0  0  0  0
  3 57  1  0  0  0  0
  4 22  2  0  0  0  0
  5 23  2  0  0  0  0
  6 25  1  0  0  0  0
  6 58  1  0  0  0  0
  7 25  2  0  0  0  0
  8 11  1  0  0  0  0
  8 12  1  0  0  0  0
  8 14  1  0  0  0  0
  8 15  1  0  0  0  0
  9 10  1  0  0  0  0
  9 11  1  0  0  0  0
  9 16  1  0  0  0  0
  9 22  1  6  0  0  0
 10 12  1  0  0  0  0
 10 13  1  0  0  0  0
 10 29  1  0  0  0  0
 11 18  1  0  0  0  0
 11 30  1  0  0  0  0
 12 23  1  0  0  0  0
 12 31  1  0  0  0  0
 13 19  1  0  0  0  0
 13 24  1  1  0  0  0
 13 25  1  0  0  0  0
 14 17  1  0  0  0  0
 14 32  1  0  0  0  0
 14 33  1  0  0  0  0
 15 21  1  0  0  0  0
 15 34  1  0  0  0  0
 15 35  1  0  0  0  0
 16 20  1  0  0  0  0
 16 36  1  0  0  0  0
 16 37  1  0  0  0  0
 17 21  1  0  0  0  0
 17 26  1  0  0  0  0
 18 27  1  0  0  0  0
 18 38  1  0  0  0  0
 18 39  1  0  0  0  0
 19 20  1  0  0  0  0
 19 40  1  0  0  0  0
 19 41  1  0  0  0  0
 20 42  1  0  0  0  0
 20 43  1  0  0  0  0
 21 28  2  0  0  0  0
 24 44  1  0  0  0  0
 24 45  1  0  0  0  0
 24 46  1  0  0  0  0
 26 47  1  0  0  0  0
 26 48  1  0  0  0  0
 26 49  1  0  0  0  0
 27 50  1  0  0  0  0
 27 51  1  0  0  0  0
 27 52  1  0  0  0  0
 28 54  1  0  0  0  0
 28 55  1  0  0  0  0
M  END
> <PUBCHEM_COMPOUND_CID>
89353847

> <PUBCHEM_COMPOUND_CANONICALIZED>
1

> <PUBCHEM_CACTVS_COMPLEXITY>
760

> <PUBCHEM_CACTVS_HBOND_ACCEPTOR>
7

> <PUBCHEM_CACTVS_HBOND_DONOR>
4

> <PUBCHEM_CACTVS_ROTATABLE_BOND>
4

> <PUBCHEM_CACTVS_SUBSKEYS>
AAADceB4OAAAAAAAAAAAAAAAAAAAAYMAAAAwAAAAAAAAAGAAAAAAGgAACAAAD0SAgAACCAAAAgCIAgDSCAAAAAAgAAAAAAEAAAgABBIAAQAAQAAEgAAAEAGI7vTPgAAAAAAAAAAAAAQAACAAAYAACAAAAA==

> <PUBCHEM_IUPAC_OPENEYE_NAME>
(1'S,3aR,7R)-3-ethyl-1'-hydroxy-1',7-dimethyl-2'-methylene-spiro[1,3,4,5,6,7a-hexahydroindene-2,4'-cyclopentane]-1,3a,7-tricarboxylic acid

> <PUBCHEM_IUPAC_CAS_NAME>
(1'S,3aR,7R)-3-ethyl-1'-hydroxy-1',7-dimethyl-2'-methylenespiro[1,3,4,5,6,7a-hexahydroindene-2,4'-cyclopentane]-1,3a,7-tricarboxylic acid

> <PUBCHEM_IUPAC_NAME_MARKUP>
(1&apos;<I>S</I>,3<I>a</I><I>R</I>,7<I>R</I>)-3-ethyl-1&apos;-hydroxy-1&apos;,7-dimethyl-2&apos;-methylidenespiro[1,3,4,5,6,7<I>a</I>-hexahydroindene-2,4&apos;-cyclopentane]-1,3<I>a</I>,7-tricarboxylic acid

> <PUBCHEM_IUPAC_NAME>
(1'S,3aR,7R)-3-ethyl-1'-hydroxy-1',7-dimethyl-2'-methylidenespiro[1,3,4,5,6,7a-hexahydroindene-2,4'-cyclopentane]-1,3a,7-tricarboxylic acid

> <PUBCHEM_IUPAC_SYSTEMATIC_NAME>
(1'S,3aR,7R)-3-ethyl-1',7-dimethyl-2'-methylidene-1'-oxidanyl-spiro[1,3,4,5,6,7a-hexahydroindene-2,4'-cyclopentane]-1,3a,7-tricarboxylic acid

> <PUBCHEM_IUPAC_TRADITIONAL_NAME>
(1'S,3aR,7R)-3-ethyl-1'-hydroxy-1',7-dimethyl-2'-methylene-spiro[1,3,4,5,6,7a-hexahydroindene-2,4'-cyclopentane]-1,3a,7-tricarboxylic acid

> <PUBCHEM_IUPAC_INCHI>
InChI=1S/C21H30O7/c1-5-12-20(9-11(2)19(4,28)10-20)13(15(22)23)14-18(3,16(24)25)7-6-8-21(12,14)17(26)27/h12-14,28H,2,5-10H2,1,3-4H3,(H,22,23)(H,24,25)(H,26,27)/t12?,13?,14?,18-,19+,20?,21-/m1/s1

> <PUBCHEM_IUPAC_INCHIKEY>
PVSKFHWRSIUNND-ZOIOXTCXSA-N

> <PUBCHEM_XLOGP3_AA>
1.7

> <PUBCHEM_EXACT_MASS>
394.19915329

> <PUBCHEM_MOLECULAR_FORMULA>
C21H30O7

> <PUBCHEM_MOLECULAR_WEIGHT>
394.5

> <PUBCHEM_OPENEYE_CAN_SMILES>
CCC1C2(CCCC(C2C(C13CC(=C)C(C3)(C)O)C(=O)O)(C)C(=O)O)C(=O)O

> <PUBCHEM_OPENEYE_ISO_SMILES>
CCC1[C@@]2(CCC[C@@](C2C(C13CC(=C)[C@@](C3)(C)O)C(=O)O)(C)C(=O)O)C(=O)O

> <PUBCHEM_CACTVS_TPSA>
132

> <PUBCHEM_MONOISOTOPIC_WEIGHT>
394.19915329

> <PUBCHEM_TOTAL_CHARGE>
0

> <PUBCHEM_HEAVY_ATOM_COUNT>
28

> <PUBCHEM_ATOM_DEF_STEREO_COUNT>
3

> <PUBCHEM_ATOM_UDEF_STEREO_COUNT>
4

> <PUBCHEM_BOND_DEF_STEREO_COUNT>
0

> <PUBCHEM_BOND_UDEF_STEREO_COUNT>
0

> <PUBCHEM_ISOTOPIC_ATOM_COUNT>
0

> <PUBCHEM_COMPONENT_COUNT>
1

> <PUBCHEM_CACTVS_TAUTO_COUNT>
-1

> <PUBCHEM_COORDINATE_TYPE>
1
5
255

> <PUBCHEM_BONDANNOTATIONS>
17  1  6
10  12  3
11  18  3
12  23  3
13  24  5
8  15  3
9  22  6

$$$$
