 
  -OEChem-10192104182D

 61 64  0     1  0  0  0  0  0999 V2000
    7.0583   -0.4720    0.0000 S   0  0  0  0  0  0  0  0  0  0  0  0
   10.4654   -2.5598    0.0000 O   0  0  0  0  0  0  0  0  0  0  0  0
    5.2217    0.5225    0.0000 O   0  0  0  0  0  0  0  0  0  0  0  0
    7.8963   -2.2507    0.0000 O   0  0  0  0  0  0  0  0  0  0  0  0
    4.2048   -1.8569    0.0000 O   0  0  0  0  0  0  0  0  0  0  0  0
    8.5686   -4.3198    0.0000 O   0  0  0  0  0  0  0  0  0  0  0  0
    2.7490   -0.2401    0.0000 O   0  0  0  0  0  0  0  0  0  0  0  0
   11.7387   -4.2153    0.0000 O   0  0  0  0  0  0  0  0  0  0  0  0
   11.3884   -0.9720    0.0000 O   0  0  0  0  0  0  0  0  0  0  0  0
    5.4191    2.3485    0.0000 O   0  0  0  0  0  0  0  0  0  0  0  0
    9.6564   -0.9720    0.0000 N   0  0  0  0  0  0  0  0  0  0  0  0
    3.8368    1.6440    0.0000 N   0  0  0  0  0  0  0  0  0  0  0  0
   10.5224    0.5280    0.0000 N   0  0  0  0  0  0  0  0  0  0  0  0
    4.0179    3.3666    0.0000 N   0  0  0  0  0  0  0  0  0  0  0  0
    9.6564    2.0280    0.0000 N   0  0  0  0  0  0  0  0  0  0  0  0
    2.6166    4.3846    0.0000 N   0  0  0  0  0  0  0  0  0  0  0  0
    9.6564   -1.9720    0.0000 C   0  0  1  0  0  0  0  0  0  0  0  0
    8.8473   -2.5598    0.0000 C   0  0  1  0  0  0  0  0  0  0  0  0
    5.3262   -0.4720    0.0000 C   0  0  1  0  0  0  0  0  0  0  0  0
    4.4127   -0.8787    0.0000 C   0  0  2  0  0  0  0  0  0  0  0  0
    9.1564   -3.5108    0.0000 C   0  0  1  0  0  0  0  0  0  0  0  0
    3.7436   -0.1356    0.0000 C   0  0  2  0  0  0  0  0  0  0  0  0
   10.1564   -3.5108    0.0000 C   0  0  1  0  0  0  0  0  0  0  0  0
    4.2436    0.7305    0.0000 C   0  0  1  0  0  0  0  0  0  0  0  0
    6.1922   -0.9720    0.0000 C   0  0  0  0  0  0  0  0  0  0  0  0
   10.7441   -4.3198    0.0000 C   0  0  0  0  0  0  0  0  0  0  0  0
    8.7903   -0.4720    0.0000 C   0  0  0  0  0  0  0  0  0  0  0  0
    7.9243   -0.9720    0.0000 C   0  0  0  0  0  0  0  0  0  0  0  0
   10.5224   -0.4720    0.0000 C   0  0  0  0  0  0  0  0  0  0  0  0
    8.7903    0.5280    0.0000 C   0  0  0  0  0  0  0  0  0  0  0  0
    2.8423    1.7485    0.0000 C   0  0  0  0  0  0  0  0  0  0  0  0
    4.4246    2.4530    0.0000 C   0  0  0  0  0  0  0  0  0  0  0  0
    9.6564    1.0280    0.0000 C   0  0  0  0  0  0  0  0  0  0  0  0
    2.4356    2.6621    0.0000 C   0  0  0  0  0  0  0  0  0  0  0  0
    3.0233    3.4711    0.0000 C   0  0  0  0  0  0  0  0  0  0  0  0
   10.2088   -1.6905    0.0000 H   0  0  0  0  0  0  0  0  0  0  0  0
    8.4089   -2.9982    0.0000 H   0  0  0  0  0  0  0  0  0  0  0  0
    5.8462   -0.1343    0.0000 H   0  0  0  0  0  0  0  0  0  0  0  0
    3.8138   -1.0392    0.0000 H   0  0  0  0  0  0  0  0  0  0  0  0
    8.5440   -3.4138    0.0000 H   0  0  0  0  0  0  0  0  0  0  0  0
    3.4059    0.3844    0.0000 H   0  0  0  0  0  0  0  0  0  0  0  0
   10.7687   -3.4138    0.0000 H   0  0  0  0  0  0  0  0  0  0  0  0
    4.6337    1.2123    0.0000 H   0  0  0  0  0  0  0  0  0  0  0  0
    5.7937   -1.4469    0.0000 H   0  0  0  0  0  0  0  0  0  0  0  0
    6.5908   -1.4469    0.0000 H   0  0  0  0  0  0  0  0  0  0  0  0
   10.1869   -4.5916    0.0000 H   0  0  0  0  0  0  0  0  0  0  0  0
   10.9150   -4.9158    0.0000 H   0  0  0  0  0  0  0  0  0  0  0  0
    7.5258   -1.4469    0.0000 H   0  0  0  0  0  0  0  0  0  0  0  0
    8.3228   -1.4469    0.0000 H   0  0  0  0  0  0  0  0  0  0  0  0
    7.4355   -2.6656    0.0000 H   0  0  0  0  0  0  0  0  0  0  0  0
    3.6151   -2.0484    0.0000 H   0  0  0  0  0  0  0  0  0  0  0  0
    8.8207   -4.8862    0.0000 H   0  0  0  0  0  0  0  0  0  0  0  0
    2.4968   -0.8065    0.0000 H   0  0  0  0  0  0  0  0  0  0  0  0
    8.2534    0.8380    0.0000 H   0  0  0  0  0  0  0  0  0  0  0  0
    2.4779    1.2469    0.0000 H   0  0  0  0  0  0  0  0  0  0  0  0
   12.1031   -4.7169    0.0000 H   0  0  0  0  0  0  0  0  0  0  0  0
    1.8190    2.7269    0.0000 H   0  0  0  0  0  0  0  0  0  0  0  0
   10.1933    2.3380    0.0000 H   0  0  0  0  0  0  0  0  0  0  0  0
    9.1194    2.3380    0.0000 H   0  0  0  0  0  0  0  0  0  0  0  0
    2.0000    4.4494    0.0000 H   0  0  0  0  0  0  0  0  0  0  0  0
    2.9810    4.8862    0.0000 H   0  0  0  0  0  0  0  0  0  0  0  0
  1 25  1  0  0  0  0
  1 28  1  0  0  0  0
  2 17  1  0  0  0  0
  2 23  1  0  0  0  0
  3 19  1  0  0  0  0
  3 24  1  0  0  0  0
 18  4  1  1  0  0  0
  4 50  1  0  0  0  0
 20  5  1  1  0  0  0
  5 51  1  0  0  0  0
 21  6  1  1  0  0  0
  6 52  1  0  0  0  0
 22  7  1  1  0  0  0
  7 53  1  0  0  0  0
  8 26  1  0  0  0  0
  8 56  1  0  0  0  0
  9 29  2  0  0  0  0
 10 32  2  0  0  0  0
 17 11  1  6  0  0  0
 11 27  1  0  0  0  0
 11 29  1  0  0  0  0
 24 12  1  6  0  0  0
 12 31  1  0  0  0  0
 12 32  1  0  0  0  0
 13 29  1  0  0  0  0
 13 33  2  0  0  0  0
 14 32  1  0  0  0  0
 14 35  2  0  0  0  0
 15 33  1  0  0  0  0
 15 58  1  0  0  0  0
 15 59  1  0  0  0  0
 16 35  1  0  0  0  0
 16 60  1  0  0  0  0
 16 61  1  0  0  0  0
 17 18  1  0  0  0  0
 17 36  1  0  0  0  0
 18 21  1  0  0  0  0
 18 37  1  0  0  0  0
 19 20  1  0  0  0  0
 19 25  1  6  0  0  0
 19 38  1  0  0  0  0
 20 22  1  0  0  0  0
 20 39  1  0  0  0  0
 21 23  1  0  0  0  0
 21 40  1  0  0  0  0
 22 24  1  0  0  0  0
 22 41  1  0  0  0  0
 23 26  1  6  0  0  0
 23 42  1  0  0  0  0
 24 43  1  0  0  0  0
 25 44  1  0  0  0  0
 25 45  1  0  0  0  0
 26 46  1  0  0  0  0
 26 47  1  0  0  0  0
 27 28  1  0  0  0  0
 27 30  2  0  0  0  0
 28 48  1  0  0  0  0
 28 49  1  0  0  0  0
 30 33  1  0  0  0  0
 30 54  1  0  0  0  0
 31 34  2  0  0  0  0
 31 55  1  0  0  0  0
 34 35  1  0  0  0  0
 34 57  1  0  0  0  0
M  END
> <PUBCHEM_COMPOUND_CID>
101793998

> <PUBCHEM_COMPOUND_CANONICALIZED>
1

> <PUBCHEM_CACTVS_COMPLEXITY>
990

> <PUBCHEM_CACTVS_HBOND_ACCEPTOR>
10

> <PUBCHEM_CACTVS_HBOND_DONOR>
7

> <PUBCHEM_CACTVS_ROTATABLE_BOND>
7

> <PUBCHEM_CACTVS_SUBSKEYS>
AAADceB7vABAAAAAAAAAAAAAAAAAASJAAAAgQAAAAAAAAAAAAAAAHgQQCAAACBzlwAaBAANABgioACZmdACAAAEAAhAICAAYABCDEAIggQAOQAAHFgKzAADwMAIAAAAAAAAAAAAAAAAAAAAAAAAAAAAAAA==

> <PUBCHEM_IUPAC_OPENEYE_NAME>
4-amino-6-[[(2S,3S,4R,5R)-5-(4-amino-2-oxo-pyrimidin-1-yl)-3,4-dihydroxy-tetrahydrofuran-2-yl]methylsulfanylmethyl]-1-[(2R,3R,4S,5R)-3,4-dihydroxy-5-(hydroxymethyl)tetrahydrofuran-2-yl]pyrimidin-2-one

> <PUBCHEM_IUPAC_CAS_NAME>
4-amino-6-[[[(2S,3S,4R,5R)-5-(4-amino-2-oxo-1-pyrimidinyl)-3,4-dihydroxy-2-oxolanyl]methylthio]methyl]-1-[(2R,3R,4S,5R)-3,4-dihydroxy-5-(hydroxymethyl)-2-oxolanyl]-2-pyrimidinone

> <PUBCHEM_IUPAC_NAME_MARKUP>
4-amino-6-[[(2<I>S</I>,3<I>S</I>,4<I>R</I>,5<I>R</I>)-5-(4-amino-2-oxopyrimidin-1-yl)-3,4-dihydroxyoxolan-2-yl]methylsulfanylmethyl]-1-[(2<I>R</I>,3<I>R</I>,4<I>S</I>,5<I>R</I>)-3,4-dihydroxy-5-(hydroxymethyl)oxolan-2-yl]pyrimidin-2-one

> <PUBCHEM_IUPAC_NAME>
4-amino-6-[[(2S,3S,4R,5R)-5-(4-amino-2-oxopyrimidin-1-yl)-3,4-dihydroxyoxolan-2-yl]methylsulfanylmethyl]-1-[(2R,3R,4S,5R)-3,4-dihydroxy-5-(hydroxymethyl)oxolan-2-yl]pyrimidin-2-one

> <PUBCHEM_IUPAC_SYSTEMATIC_NAME>
4-azanyl-6-[[(2S,3S,4R,5R)-5-(4-azanyl-2-oxidanylidene-pyrimidin-1-yl)-3,4-bis(oxidanyl)oxolan-2-yl]methylsulfanylmethyl]-1-[(2R,3R,4S,5R)-5-(hydroxymethyl)-3,4-bis(oxidanyl)oxolan-2-yl]pyrimidin-2-one

> <PUBCHEM_IUPAC_TRADITIONAL_NAME>
4-amino-6-[[[(2S,3S,4R,5R)-5-(4-amino-2-keto-pyrimidin-1-yl)-3,4-dihydroxy-tetrahydrofuran-2-yl]methylthio]methyl]-1-[(2R,3R,4S,5R)-3,4-dihydroxy-5-methylol-tetrahydrofuran-2-yl]pyrimidin-2-one

> <PUBCHEM_IUPAC_INCHI>
InChI=1S/C19H26N6O9S/c20-10-1-2-24(18(31)22-10)16-14(29)13(28)9(34-16)6-35-5-7-3-11(21)23-19(32)25(7)17-15(30)12(27)8(4-26)33-17/h1-3,8-9,12-17,26-30H,4-6H2,(H2,20,22,31)(H2,21,23,32)/t8-,9-,12-,13-,14-,15-,16-,17-/m1/s1

> <PUBCHEM_IUPAC_INCHIKEY>
GZDRRIGZFNTBMS-RTGFKBDUSA-N

> <PUBCHEM_XLOGP3_AA>
-4.9

> <PUBCHEM_EXACT_MASS>
514.14819760

> <PUBCHEM_MOLECULAR_FORMULA>
C19H26N6O9S

> <PUBCHEM_MOLECULAR_WEIGHT>
514.5

> <PUBCHEM_OPENEYE_CAN_SMILES>
C1=CN(C(=O)N=C1N)C2C(C(C(O2)CSCC3=CC(=NC(=O)N3C4C(C(C(O4)CO)O)O)N)O)O

> <PUBCHEM_OPENEYE_ISO_SMILES>
C1=CN(C(=O)N=C1N)[C@H]2[C@@H]([C@@H]([C@H](O2)CSCC3=CC(=NC(=O)N3[C@H]4[C@@H]([C@@H]([C@H](O4)CO)O)O)N)O)O

> <PUBCHEM_CACTVS_TPSA>
262

> <PUBCHEM_MONOISOTOPIC_WEIGHT>
514.14819760

> <PUBCHEM_TOTAL_CHARGE>
0

> <PUBCHEM_HEAVY_ATOM_COUNT>
35

> <PUBCHEM_ATOM_DEF_STEREO_COUNT>
8

> <PUBCHEM_ATOM_UDEF_STEREO_COUNT>
0

> <PUBCHEM_BOND_DEF_STEREO_COUNT>
0

> <PUBCHEM_BOND_UDEF_STEREO_COUNT>
0

> <PUBCHEM_ISOTOPIC_ATOM_COUNT>
0

> <PUBCHEM_COMPONENT_COUNT>
1

> <PUBCHEM_CACTVS_TAUTO_COUNT>
-1

> <PUBCHEM_COORDINATE_TYPE>
1
5
255

> <PUBCHEM_BONDANNOTATIONS>
17  11  6
11  27  8
11  29  8
24  12  6
12  31  8
12  32  8
13  29  8
13  33  8
14  32  8
14  35  8
19  25  6
23  26  6
27  30  8
30  33  8
31  34  8
34  35  8
18  4  5
20  5  5
21  6  5
22  7  5

$$$$
