 
  -OEChem-10192104362D

 56 56  0     0  0  0  0  0  0999 V2000
    5.0000   -6.3306    0.0000 O   0  0  0  0  0  0  0  0  0  0  0  0
    3.5000   -7.1967    0.0000 O   0  0  0  0  0  0  0  0  0  0  0  0
    2.5000   -0.2685    0.0000 O   0  0  0  0  0  0  0  0  0  0  0  0
    3.5000    6.6597    0.0000 O   0  0  0  0  0  0  0  0  0  0  0  0
    2.0000    5.7937    0.0000 O   0  0  0  0  0  0  0  0  0  0  0  0
    3.5000   -5.4646    0.0000 C   0  0  0  0  0  0  0  0  0  0  0  0
    2.6340   -5.9646    0.0000 C   0  0  0  0  0  0  0  0  0  0  0  0
    2.6340   -4.9646    0.0000 C   0  0  0  0  0  0  0  0  0  0  0  0
    4.0000   -4.5986    0.0000 C   0  0  0  0  0  0  0  0  0  0  0  0
    4.0000   -6.3306    0.0000 C   0  0  0  0  0  0  0  0  0  0  0  0
    3.5000   -3.7326    0.0000 C   0  0  0  0  0  0  0  0  0  0  0  0
    4.0000   -2.8665    0.0000 C   0  0  0  0  0  0  0  0  0  0  0  0
    3.5000   -2.0005    0.0000 C   0  0  0  0  0  0  0  0  0  0  0  0
    4.0000   -1.1345    0.0000 C   0  0  0  0  0  0  0  0  0  0  0  0
    3.5000    4.9277    0.0000 C   0  0  0  0  0  0  0  0  0  0  0  0
    4.0000    4.0617    0.0000 C   0  0  0  0  0  0  0  0  0  0  0  0
    3.5000    3.1956    0.0000 C   0  0  0  0  0  0  0  0  0  0  0  0
    3.5000   -0.2685    0.0000 C   0  0  0  0  0  0  0  0  0  0  0  0
    4.0000    2.3296    0.0000 C   0  0  0  0  0  0  0  0  0  0  0  0
    4.0000    0.5976    0.0000 C   0  0  0  0  0  0  0  0  0  0  0  0
    3.5000    1.4636    0.0000 C   0  0  0  0  0  0  0  0  0  0  0  0
    4.3660    5.4277    0.0000 C   0  0  0  0  0  0  0  0  0  0  0  0
    2.6340    4.4277    0.0000 C   0  0  0  0  0  0  0  0  0  0  0  0
    3.0000    5.7937    0.0000 C   0  0  0  0  0  0  0  0  0  0  0  0
    2.0234   -6.0723    0.0000 H   0  0  0  0  0  0  0  0  0  0  0  0
    2.8460   -6.5472    0.0000 H   0  0  0  0  0  0  0  0  0  0  0  0
    2.8460   -4.3820    0.0000 H   0  0  0  0  0  0  0  0  0  0  0  0
    2.0234   -4.8570    0.0000 H   0  0  0  0  0  0  0  0  0  0  0  0
    4.4750   -4.9971    0.0000 H   0  0  0  0  0  0  0  0  0  0  0  0
    4.4750   -4.2001    0.0000 H   0  0  0  0  0  0  0  0  0  0  0  0
    3.0250   -3.3340    0.0000 H   0  0  0  0  0  0  0  0  0  0  0  0
    3.0250   -4.1311    0.0000 H   0  0  0  0  0  0  0  0  0  0  0  0
    4.4750   -3.2651    0.0000 H   0  0  0  0  0  0  0  0  0  0  0  0
    4.4750   -2.4680    0.0000 H   0  0  0  0  0  0  0  0  0  0  0  0
    3.0250   -1.6020    0.0000 H   0  0  0  0  0  0  0  0  0  0  0  0
    3.0250   -2.3990    0.0000 H   0  0  0  0  0  0  0  0  0  0  0  0
    5.3100   -6.8676    0.0000 H   0  0  0  0  0  0  0  0  0  0  0  0
    4.4750   -1.5330    0.0000 H   0  0  0  0  0  0  0  0  0  0  0  0
    4.4750   -0.7360    0.0000 H   0  0  0  0  0  0  0  0  0  0  0  0
    4.4750    3.6631    0.0000 H   0  0  0  0  0  0  0  0  0  0  0  0
    4.4750    4.4602    0.0000 H   0  0  0  0  0  0  0  0  0  0  0  0
    3.0250    3.5942    0.0000 H   0  0  0  0  0  0  0  0  0  0  0  0
    3.0250    2.7971    0.0000 H   0  0  0  0  0  0  0  0  0  0  0  0
    4.4750    1.9311    0.0000 H   0  0  0  0  0  0  0  0  0  0  0  0
    4.4750    2.7281    0.0000 H   0  0  0  0  0  0  0  0  0  0  0  0
    3.0250    1.8621    0.0000 H   0  0  0  0  0  0  0  0  0  0  0  0
    3.0250    1.0650    0.0000 H   0  0  0  0  0  0  0  0  0  0  0  0
    4.4750    0.1990    0.0000 H   0  0  0  0  0  0  0  0  0  0  0  0
    4.4750    0.9961    0.0000 H   0  0  0  0  0  0  0  0  0  0  0  0
    4.6760    4.8908    0.0000 H   0  0  0  0  0  0  0  0  0  0  0  0
    4.9030    5.7377    0.0000 H   0  0  0  0  0  0  0  0  0  0  0  0
    4.0560    5.9646    0.0000 H   0  0  0  0  0  0  0  0  0  0  0  0
    2.3240    4.9646    0.0000 H   0  0  0  0  0  0  0  0  0  0  0  0
    2.0970    4.1177    0.0000 H   0  0  0  0  0  0  0  0  0  0  0  0
    2.9440    3.8908    0.0000 H   0  0  0  0  0  0  0  0  0  0  0  0
    3.1900    7.1967    0.0000 H   0  0  0  0  0  0  0  0  0  0  0  0
  1 10  1  0  0  0  0
  1 37  1  0  0  0  0
  2 10  2  0  0  0  0
  3 18  2  0  0  0  0
  4 24  1  0  0  0  0
  4 56  1  0  0  0  0
  5 24  2  0  0  0  0
  6  7  1  0  0  0  0
  6  8  1  0  0  0  0
  6  9  1  0  0  0  0
  6 10  1  0  0  0  0
  7  8  1  0  0  0  0
  7 25  1  0  0  0  0
  7 26  1  0  0  0  0
  8 27  1  0  0  0  0
  8 28  1  0  0  0  0
  9 11  1  0  0  0  0
  9 29  1  0  0  0  0
  9 30  1  0  0  0  0
 11 12  1  0  0  0  0
 11 31  1  0  0  0  0
 11 32  1  0  0  0  0
 12 13  1  0  0  0  0
 12 33  1  0  0  0  0
 12 34  1  0  0  0  0
 13 14  1  0  0  0  0
 13 35  1  0  0  0  0
 13 36  1  0  0  0  0
 14 18  1  0  0  0  0
 14 38  1  0  0  0  0
 14 39  1  0  0  0  0
 15 16  1  0  0  0  0
 15 22  1  0  0  0  0
 15 23  1  0  0  0  0
 15 24  1  0  0  0  0
 16 17  1  0  0  0  0
 16 40  1  0  0  0  0
 16 41  1  0  0  0  0
 17 19  1  0  0  0  0
 17 42  1  0  0  0  0
 17 43  1  0  0  0  0
 18 20  1  0  0  0  0
 19 21  1  0  0  0  0
 19 44  1  0  0  0  0
 19 45  1  0  0  0  0
 20 21  1  0  0  0  0
 20 48  1  0  0  0  0
 20 49  1  0  0  0  0
 21 46  1  0  0  0  0
 21 47  1  0  0  0  0
 22 50  1  0  0  0  0
 22 51  1  0  0  0  0
 22 52  1  0  0  0  0
 23 53  1  0  0  0  0
 23 54  1  0  0  0  0
 23 55  1  0  0  0  0
M  END
> <PUBCHEM_COMPOUND_CID>
11674524

> <PUBCHEM_COMPOUND_CANONICALIZED>
1

> <PUBCHEM_CACTVS_COMPLEXITY>
449

> <PUBCHEM_CACTVS_HBOND_ACCEPTOR>
5

> <PUBCHEM_CACTVS_HBOND_DONOR>
2

> <PUBCHEM_CACTVS_ROTATABLE_BOND>
14

> <PUBCHEM_CACTVS_SUBSKEYS>
AAADcfB4OAAAAAAAAAAAAAAAGAAAAAAAAAAAAAAAAAAAAAAAAAAAGgAACAAADgSAgAACCAAAAgAIAICQCAAAAAAAAAAAAAEAAAAAABIAAAAAQAAEAAAAAAGIyOCPAAAAAAAAAAAAAAAAAAAAAAAAAAAAAA==

> <PUBCHEM_IUPAC_OPENEYE_NAME>
1-(12-carboxy-12-methyl-6-oxo-tridecyl)cyclopropanecarboxylic acid

> <PUBCHEM_IUPAC_CAS_NAME>
1-(12-carboxy-12-methyl-6-oxotridecyl)-1-cyclopropanecarboxylic acid

> <PUBCHEM_IUPAC_NAME_MARKUP>
1-(12-carboxy-12-methyl-6-oxotridecyl)cyclopropane-1-carboxylic acid

> <PUBCHEM_IUPAC_NAME>
1-(12-carboxy-12-methyl-6-oxotridecyl)cyclopropane-1-carboxylic acid

> <PUBCHEM_IUPAC_SYSTEMATIC_NAME>
1-[12,12-dimethyl-13-oxidanyl-6,13-bis(oxidanylidene)tridecyl]cyclopropane-1-carboxylic acid

> <PUBCHEM_IUPAC_TRADITIONAL_NAME>
1-(12-carboxy-6-keto-12-methyl-tridecyl)cyclopropanecarboxylic acid

> <PUBCHEM_IUPAC_INCHI>
InChI=1S/C19H32O5/c1-18(2,16(21)22)11-7-3-5-9-15(20)10-6-4-8-12-19(13-14-19)17(23)24/h3-14H2,1-2H3,(H,21,22)(H,23,24)

> <PUBCHEM_IUPAC_INCHIKEY>
QUCZLMLKVHVWPX-UHFFFAOYSA-N

> <PUBCHEM_XLOGP3_AA>
3.7

> <PUBCHEM_EXACT_MASS>
340.22497412

> <PUBCHEM_MOLECULAR_FORMULA>
C19H32O5

> <PUBCHEM_MOLECULAR_WEIGHT>
340.5

> <PUBCHEM_OPENEYE_CAN_SMILES>
CC(C)(CCCCCC(=O)CCCCCC1(CC1)C(=O)O)C(=O)O

> <PUBCHEM_OPENEYE_ISO_SMILES>
CC(C)(CCCCCC(=O)CCCCCC1(CC1)C(=O)O)C(=O)O

> <PUBCHEM_CACTVS_TPSA>
91.7

> <PUBCHEM_MONOISOTOPIC_WEIGHT>
340.22497412

> <PUBCHEM_TOTAL_CHARGE>
0

> <PUBCHEM_HEAVY_ATOM_COUNT>
24

> <PUBCHEM_ATOM_DEF_STEREO_COUNT>
0

> <PUBCHEM_ATOM_UDEF_STEREO_COUNT>
0

> <PUBCHEM_BOND_DEF_STEREO_COUNT>
0

> <PUBCHEM_BOND_UDEF_STEREO_COUNT>
0

> <PUBCHEM_ISOTOPIC_ATOM_COUNT>
0

> <PUBCHEM_COMPONENT_COUNT>
1

> <PUBCHEM_CACTVS_TAUTO_COUNT>
-1

> <PUBCHEM_COORDINATE_TYPE>
1
5
255

$$$$
