 
  -OEChem-10192104302D

 33 34  0     0  0  0  0  0  0999 V2000
    3.0827   -0.5000    0.0000 P   0  0  0  0  0  0  0  0  0  0  0  0
    3.5827    0.3660    0.0000 O   0  0  0  0  0  0  0  0  0  0  0  0
    2.1045   -0.2921    0.0000 O   0  0  0  0  0  0  0  0  0  0  0  0
    4.8147   -0.5000    0.0000 O   0  0  0  0  0  0  0  0  0  0  0  0
    2.8748   -1.4782    0.0000 O   0  0  0  0  0  0  0  0  0  0  0  0
    3.9487   -2.0000    0.0000 O   0  0  0  0  0  0  0  0  0  0  0  0
    7.4128    1.0000    0.0000 O   0  0  0  0  0  0  0  0  0  0  0  0
    5.6808    1.0000    0.0000 O   0  0  0  0  0  0  0  0  0  0  0  0
    2.9136    1.1092    0.0000 C   0  0  0  0  0  0  0  0  0  0  0  0
    2.0000    0.7024    0.0000 C   0  0  0  0  0  0  0  0  0  0  0  0
    3.9487   -1.0000    0.0000 C   0  0  0  0  0  0  0  0  0  0  0  0
    5.6808   -1.0000    0.0000 C   0  0  0  0  0  0  0  0  0  0  0  0
    6.5468   -0.5000    0.0000 C   0  0  0  0  0  0  0  0  0  0  0  0
    5.6808   -2.0000    0.0000 C   0  0  0  0  0  0  0  0  0  0  0  0
    7.4128   -1.0000    0.0000 C   0  0  0  0  0  0  0  0  0  0  0  0
    6.5468   -2.5000    0.0000 C   0  0  0  0  0  0  0  0  0  0  0  0
    6.5468    0.5000    0.0000 C   0  0  0  0  0  0  0  0  0  0  0  0
    7.4128   -2.0000    0.0000 C   0  0  0  0  0  0  0  0  0  0  0  0
    7.4128    2.0000    0.0000 C   0  0  0  0  0  0  0  0  0  0  0  0
    8.2788    2.5000    0.0000 C   0  0  0  0  0  0  0  0  0  0  0  0
    3.4151    1.4736    0.0000 H   0  0  0  0  0  0  0  0  0  0  0  0
    2.6035    1.6461    0.0000 H   0  0  0  0  0  0  0  0  0  0  0  0
    1.8084    1.2921    0.0000 H   0  0  0  0  0  0  0  0  0  0  0  0
    1.3936    0.5735    0.0000 H   0  0  0  0  0  0  0  0  0  0  0  0
    5.1438   -2.3100    0.0000 H   0  0  0  0  0  0  0  0  0  0  0  0
    7.9497   -0.6900    0.0000 H   0  0  0  0  0  0  0  0  0  0  0  0
    6.5468   -3.1200    0.0000 H   0  0  0  0  0  0  0  0  0  0  0  0
    7.9497   -2.3100    0.0000 H   0  0  0  0  0  0  0  0  0  0  0  0
    7.2008    2.5826    0.0000 H   0  0  0  0  0  0  0  0  0  0  0  0
    6.8022    1.8923    0.0000 H   0  0  0  0  0  0  0  0  0  0  0  0
    8.5888    1.9631    0.0000 H   0  0  0  0  0  0  0  0  0  0  0  0
    8.8158    2.8100    0.0000 H   0  0  0  0  0  0  0  0  0  0  0  0
    7.9688    3.0369    0.0000 H   0  0  0  0  0  0  0  0  0  0  0  0
  1  2  1  0  0  0  0
  1  3  1  0  0  0  0
  1  5  2  0  0  0  0
  1 11  1  0  0  0  0
  2  9  1  0  0  0  0
  3 10  1  0  0  0  0
  4 11  1  0  0  0  0
  4 12  1  0  0  0  0
  6 11  2  0  0  0  0
  7 17  1  0  0  0  0
  7 19  1  0  0  0  0
  8 17  2  0  0  0  0
  9 10  1  0  0  0  0
  9 21  1  0  0  0  0
  9 22  1  0  0  0  0
 10 23  1  0  0  0  0
 10 24  1  0  0  0  0
 12 13  1  0  0  0  0
 12 14  2  0  0  0  0
 13 15  2  0  0  0  0
 13 17  1  0  0  0  0
 14 16  1  0  0  0  0
 14 25  1  0  0  0  0
 15 18  1  0  0  0  0
 15 26  1  0  0  0  0
 16 18  2  0  0  0  0
 16 27  1  0  0  0  0
 18 28  1  0  0  0  0
 19 20  1  0  0  0  0
 19 29  1  0  0  0  0
 19 30  1  0  0  0  0
 20 31  1  0  0  0  0
 20 32  1  0  0  0  0
 20 33  1  0  0  0  0
M  END
> <PUBCHEM_COMPOUND_CID>
53996976

> <PUBCHEM_COMPOUND_CANONICALIZED>
1

> <PUBCHEM_CACTVS_COMPLEXITY>
412

> <PUBCHEM_CACTVS_HBOND_ACCEPTOR>
7

> <PUBCHEM_CACTVS_HBOND_DONOR>
0

> <PUBCHEM_CACTVS_ROTATABLE_BOND>
6

> <PUBCHEM_CACTVS_SUBSKEYS>
AAADccBwOAIAAAAAAAAAAAAAAAAAASAAAAAwAAAAAAAAAAABAAAAGggAACAADASgmAIyDoAABRCIQiDSCIACCAAkIAAIiAEGCMgNJzaENRqCM2Al4BEIqYeIyCCOAAAAAAAIAAAAAAAAABAAAAAAAAAAAA==

> <PUBCHEM_IUPAC_OPENEYE_NAME>
(2-ethoxycarbonylphenyl) 2-oxo-1,3,2lambda5-dioxaphospholane-2-carboxylate

> <PUBCHEM_IUPAC_CAS_NAME>
2-oxo-1,3,2lambda5-dioxaphospholane-2-carboxylic acid (2-ethoxycarbonylphenyl) ester

> <PUBCHEM_IUPAC_NAME_MARKUP>
(2-ethoxycarbonylphenyl) 2-oxo-1,3,2&lambda;<SUP>5</SUP>-dioxaphospholane-2-carboxylate

> <PUBCHEM_IUPAC_NAME>
(2-ethoxycarbonylphenyl) 2-oxo-1,3,2lambda5-dioxaphospholane-2-carboxylate

> <PUBCHEM_IUPAC_SYSTEMATIC_NAME>
(2-ethoxycarbonylphenyl) 2-oxidanylidene-1,3,2lambda5-dioxaphospholane-2-carboxylate

> <PUBCHEM_IUPAC_TRADITIONAL_NAME>
2-keto-1,3,2lambda5-dioxaphospholane-2-carboxylic acid (2-carbethoxyphenyl) ester

> <PUBCHEM_IUPAC_INCHI>
InChI=1S/C12H13O7P/c1-2-16-11(13)9-5-3-4-6-10(9)19-12(14)20(15)17-7-8-18-20/h3-6H,2,7-8H2,1H3

> <PUBCHEM_IUPAC_INCHIKEY>
KIUWSUWSWPDYGA-UHFFFAOYSA-N

> <PUBCHEM_XLOGP3_AA>
1.2

> <PUBCHEM_EXACT_MASS>
300.03988975

> <PUBCHEM_MOLECULAR_FORMULA>
C12H13O7P

> <PUBCHEM_MOLECULAR_WEIGHT>
300.20

> <PUBCHEM_OPENEYE_CAN_SMILES>
CCOC(=O)C1=CC=CC=C1OC(=O)P2(=O)OCCO2

> <PUBCHEM_OPENEYE_ISO_SMILES>
CCOC(=O)C1=CC=CC=C1OC(=O)P2(=O)OCCO2

> <PUBCHEM_CACTVS_TPSA>
88.1

> <PUBCHEM_MONOISOTOPIC_WEIGHT>
300.03988975

> <PUBCHEM_TOTAL_CHARGE>
0

> <PUBCHEM_HEAVY_ATOM_COUNT>
20

> <PUBCHEM_ATOM_DEF_STEREO_COUNT>
0

> <PUBCHEM_ATOM_UDEF_STEREO_COUNT>
0

> <PUBCHEM_BOND_DEF_STEREO_COUNT>
0

> <PUBCHEM_BOND_UDEF_STEREO_COUNT>
0

> <PUBCHEM_ISOTOPIC_ATOM_COUNT>
0

> <PUBCHEM_COMPONENT_COUNT>
1

> <PUBCHEM_CACTVS_TAUTO_COUNT>
-1

> <PUBCHEM_COORDINATE_TYPE>
1
5
255

> <PUBCHEM_BONDANNOTATIONS>
12  13  8
12  14  8
13  15  8
14  16  8
15  18  8
16  18  8

$$$$
