 
  -OEChem-10192103332D

 31 31  0     0  0  0  0  0  0999 V2000
    2.6200    1.4330    0.0000 O   0  0  0  0  0  0  0  0  0  0  0  0
    2.6200   -2.2990    0.0000 O   0  0  0  0  0  0  0  0  0  0  0  0
    3.1200    0.5670    0.0000 C   0  0  0  0  0  0  0  0  0  0  0  0
    3.6200    1.4330    0.0000 C   0  0  0  0  0  0  0  0  0  0  0  0
    3.1200   -1.4330    0.0000 C   0  0  0  0  0  0  0  0  0  0  0  0
    4.6200    1.4330    0.0000 C   0  0  0  0  0  0  0  0  0  0  0  0
    2.2540    0.0670    0.0000 C   0  0  0  0  0  0  0  0  0  0  0  0
    3.9860    0.0670    0.0000 C   0  0  0  0  0  0  0  0  0  0  0  0
    2.2540   -0.9330    0.0000 C   0  0  0  0  0  0  0  0  0  0  0  0
    3.9860   -0.9330    0.0000 C   0  0  0  0  0  0  0  0  0  0  0  0
    5.1200    2.2990    0.0000 C   0  0  0  0  0  0  0  0  0  0  0  0
    3.6200   -2.2990    0.0000 C   0  0  0  0  0  0  0  0  0  0  0  0
    6.1200    2.2990    0.0000 C   0  0  0  0  0  0  0  0  0  0  0  0
    3.7277    2.0436    0.0000 H   0  0  0  0  0  0  0  0  0  0  0  0
    3.0374    1.6451    0.0000 H   0  0  0  0  0  0  0  0  0  0  0  0
    4.5123    0.8224    0.0000 H   0  0  0  0  0  0  0  0  0  0  0  0
    5.2026    1.2210    0.0000 H   0  0  0  0  0  0  0  0  0  0  0  0
    1.7170    0.3770    0.0000 H   0  0  0  0  0  0  0  0  0  0  0  0
    4.5230    0.3770    0.0000 H   0  0  0  0  0  0  0  0  0  0  0  0
    1.7170   -1.2430    0.0000 H   0  0  0  0  0  0  0  0  0  0  0  0
    4.5230   -1.2430    0.0000 H   0  0  0  0  0  0  0  0  0  0  0  0
    5.2277    2.9096    0.0000 H   0  0  0  0  0  0  0  0  0  0  0  0
    4.5374    2.5111    0.0000 H   0  0  0  0  0  0  0  0  0  0  0  0
    3.0831   -2.6090    0.0000 H   0  0  0  0  0  0  0  0  0  0  0  0
    3.9300   -2.8360    0.0000 H   0  0  0  0  0  0  0  0  0  0  0  0
    4.1569   -1.9890    0.0000 H   0  0  0  0  0  0  0  0  0  0  0  0
    2.0000    1.4330    0.0000 H   0  0  0  0  0  0  0  0  0  0  0  0
    6.1200    1.6790    0.0000 H   0  0  0  0  0  0  0  0  0  0  0  0
    6.7400    2.2990    0.0000 H   0  0  0  0  0  0  0  0  0  0  0  0
    6.1200    2.9190    0.0000 H   0  0  0  0  0  0  0  0  0  0  0  0
    2.0000   -2.2990    0.0000 H   0  0  0  0  0  0  0  0  0  0  0  0
  1  3  1  0  0  0  0
  1 27  1  0  0  0  0
  2  5  1  0  0  0  0
  2 31  1  0  0  0  0
  3  4  1  0  0  0  0
  3  7  1  0  0  0  0
  3  8  1  0  0  0  0
  4  6  1  0  0  0  0
  4 14  1  0  0  0  0
  4 15  1  0  0  0  0
  5  9  1  0  0  0  0
  5 10  1  0  0  0  0
  5 12  1  0  0  0  0
  6 11  1  0  0  0  0
  6 16  1  0  0  0  0
  6 17  1  0  0  0  0
  7  9  2  0  0  0  0
  7 18  1  0  0  0  0
  8 10  2  0  0  0  0
  8 19  1  0  0  0  0
  9 20  1  0  0  0  0
 10 21  1  0  0  0  0
 11 13  1  0  0  0  0
 11 22  1  0  0  0  0
 11 23  1  0  0  0  0
 12 24  1  0  0  0  0
 12 25  1  0  0  0  0
 12 26  1  0  0  0  0
 13 28  1  0  0  0  0
 13 29  1  0  0  0  0
 13 30  1  0  0  0  0
M  END
> <PUBCHEM_COMPOUND_CID>
12561658

> <PUBCHEM_COMPOUND_CANONICALIZED>
1

> <PUBCHEM_CACTVS_COMPLEXITY>
214

> <PUBCHEM_CACTVS_HBOND_ACCEPTOR>
2

> <PUBCHEM_CACTVS_HBOND_DONOR>
2

> <PUBCHEM_CACTVS_ROTATABLE_BOND>
3

> <PUBCHEM_CACTVS_SUBSKEYS>
AAADceBwMAAAAAAAAAAAAAAAAAAAAAAAAAAgAAAAAAAAAAAAAAAAGgAACAAADESAgAACAAAAAgCAACBCAAAAAAAgAAAICAAAAAgABAIAAAAAUAAEgAAIEAOAAAAMAAAAAAAAAAAAAAAAAAAAAAAAAAAAAA==

> <PUBCHEM_IUPAC_OPENEYE_NAME>
1-butyl-4-methyl-cyclohexa-2,5-diene-1,4-diol

> <PUBCHEM_IUPAC_CAS_NAME>
1-butyl-4-methylcyclohexa-2,5-diene-1,4-diol

> <PUBCHEM_IUPAC_NAME_MARKUP>
1-butyl-4-methylcyclohexa-2,5-diene-1,4-diol

> <PUBCHEM_IUPAC_NAME>
1-butyl-4-methylcyclohexa-2,5-diene-1,4-diol

> <PUBCHEM_IUPAC_SYSTEMATIC_NAME>
1-butyl-4-methyl-cyclohexa-2,5-diene-1,4-diol

> <PUBCHEM_IUPAC_TRADITIONAL_NAME>
1-butyl-4-methyl-cyclohexa-2,5-diene-1,4-diol

> <PUBCHEM_IUPAC_INCHI>
InChI=1S/C11H18O2/c1-3-4-5-11(13)8-6-10(2,12)7-9-11/h6-9,12-13H,3-5H2,1-2H3

> <PUBCHEM_IUPAC_INCHIKEY>
SUWVDOCGSWJHGO-UHFFFAOYSA-N

> <PUBCHEM_XLOGP3_AA>
1.8

> <PUBCHEM_EXACT_MASS>
182.130679813

> <PUBCHEM_MOLECULAR_FORMULA>
C11H18O2

> <PUBCHEM_MOLECULAR_WEIGHT>
182.26

> <PUBCHEM_OPENEYE_CAN_SMILES>
CCCCC1(C=CC(C=C1)(C)O)O

> <PUBCHEM_OPENEYE_ISO_SMILES>
CCCCC1(C=CC(C=C1)(C)O)O

> <PUBCHEM_CACTVS_TPSA>
40.5

> <PUBCHEM_MONOISOTOPIC_WEIGHT>
182.130679813

> <PUBCHEM_TOTAL_CHARGE>
0

> <PUBCHEM_HEAVY_ATOM_COUNT>
13

> <PUBCHEM_ATOM_DEF_STEREO_COUNT>
0

> <PUBCHEM_ATOM_UDEF_STEREO_COUNT>
0

> <PUBCHEM_BOND_DEF_STEREO_COUNT>
0

> <PUBCHEM_BOND_UDEF_STEREO_COUNT>
0

> <PUBCHEM_ISOTOPIC_ATOM_COUNT>
0

> <PUBCHEM_COMPONENT_COUNT>
1

> <PUBCHEM_CACTVS_TAUTO_COUNT>
-1

> <PUBCHEM_COORDINATE_TYPE>
1
5
255

$$$$
