 
  -OEChem-10192103372D

 42 45  0     1  0  0  0  0  0999 V2000
   10.1213    0.6702    0.0000 O   0  0  0  0  0  0  0  0  0  0  0  0
    7.5833    1.1746    0.0000 O   0  0  0  0  0  0  0  0  0  0  0  0
    8.8651    2.9324    0.0000 O   0  0  0  0  0  0  0  0  0  0  0  0
   11.8459    1.8482    0.0000 O   0  0  0  0  0  0  0  0  0  0  0  0
    7.0468   -3.3924    0.0000 O   0  0  0  0  0  0  0  0  0  0  0  0
    2.6691   -0.7992    0.0000 O   0  0  0  0  0  0  0  0  0  0  0  0
    4.4487   -1.8924    0.0000 O   0  0  0  0  0  0  0  0  0  0  0  0
    8.8590   -0.5877    0.0000 N   0  0  0  0  0  0  0  0  0  0  0  0
    8.8590   -2.1972    0.0000 N   0  0  0  0  0  0  0  0  0  0  0  0
    7.0468   -0.3925    0.0000 N   0  0  0  0  0  0  0  0  0  0  0  0
    6.1808   -1.8924    0.0000 N   0  0  0  0  0  0  0  0  0  0  0  0
    5.3147   -0.3925    0.0000 N   0  0  0  0  0  0  0  0  0  0  0  0
    8.5833    1.1728    0.0000 C   0  0  1  0  0  0  0  0  0  0  0  0
    9.1697    0.3628    0.0000 C   0  0  1  0  0  0  0  0  0  0  0  0
    9.1725    1.9808    0.0000 C   0  0  1  0  0  0  0  0  0  0  0  0
   10.1230    1.6702    0.0000 C   0  0  1  0  0  0  0  0  0  0  0  0
   10.9330    2.2566    0.0000 C   0  0  0  0  0  0  0  0  0  0  0  0
    7.9128   -0.8925    0.0000 C   0  0  0  0  0  0  0  0  0  0  0  0
    9.4426   -1.3924    0.0000 C   0  0  0  0  0  0  0  0  0  0  0  0
    7.9128   -1.8924    0.0000 C   0  0  0  0  0  0  0  0  0  0  0  0
    7.0468   -2.3925    0.0000 C   0  0  0  0  0  0  0  0  0  0  0  0
    6.1808   -0.8925    0.0000 C   0  0  0  0  0  0  0  0  0  0  0  0
    4.4487   -0.8925    0.0000 C   0  0  0  0  0  0  0  0  0  0  0  0
    3.5827   -0.3925    0.0000 C   0  0  0  0  0  0  0  0  0  0  0  0
    3.4782    0.6021    0.0000 C   0  0  0  0  0  0  0  0  0  0  0  0
    2.5000    0.8100    0.0000 C   0  0  0  0  0  0  0  0  0  0  0  0
    2.0000   -0.0560    0.0000 C   0  0  0  0  0  0  0  0  0  0  0  0
    8.3028    1.7257    0.0000 H   0  0  0  0  0  0  0  0  0  0  0  0
    9.6073   -0.0764    0.0000 H   0  0  0  0  0  0  0  0  0  0  0  0
    9.6116    2.4185    0.0000 H   0  0  0  0  0  0  0  0  0  0  0  0
   10.6749    1.3877    0.0000 H   0  0  0  0  0  0  0  0  0  0  0  0
   11.2806    2.7700    0.0000 H   0  0  0  0  0  0  0  0  0  0  0  0
   10.4878    2.6880    0.0000 H   0  0  0  0  0  0  0  0  0  0  0  0
    7.2742    1.7120    0.0000 H   0  0  0  0  0  0  0  0  0  0  0  0
    9.2808    3.3924    0.0000 H   0  0  0  0  0  0  0  0  0  0  0  0
   10.0626   -1.3924    0.0000 H   0  0  0  0  0  0  0  0  0  0  0  0
   12.3481    2.2118    0.0000 H   0  0  0  0  0  0  0  0  0  0  0  0
    5.6438   -2.2024    0.0000 H   0  0  0  0  0  0  0  0  0  0  0  0
    5.3147    0.2275    0.0000 H   0  0  0  0  0  0  0  0  0  0  0  0
    3.9389    1.0169    0.0000 H   0  0  0  0  0  0  0  0  0  0  0  0
    2.2478    1.3764    0.0000 H   0  0  0  0  0  0  0  0  0  0  0  0
    1.3834   -0.1209    0.0000 H   0  0  0  0  0  0  0  0  0  0  0  0
  1 14  1  0  0  0  0
  1 16  1  0  0  0  0
 13  2  1  6  0  0  0
  2 34  1  0  0  0  0
 15  3  1  6  0  0  0
  3 35  1  0  0  0  0
  4 17  1  0  0  0  0
  4 37  1  0  0  0  0
  5 21  2  0  0  0  0
  6 24  1  0  0  0  0
  6 27  1  0  0  0  0
  7 23  2  0  0  0  0
 14  8  1  1  0  0  0
  8 18  1  0  0  0  0
  8 19  1  0  0  0  0
  9 19  2  0  0  0  0
  9 20  1  0  0  0  0
 10 18  1  0  0  0  0
 10 22  2  0  0  0  0
 11 21  1  0  0  0  0
 11 22  1  0  0  0  0
 11 38  1  0  0  0  0
 12 22  1  0  0  0  0
 12 23  1  0  0  0  0
 12 39  1  0  0  0  0
 13 14  1  0  0  0  0
 13 15  1  0  0  0  0
 13 28  1  0  0  0  0
 14 29  1  0  0  0  0
 15 16  1  0  0  0  0
 15 30  1  0  0  0  0
 16 17  1  1  0  0  0
 16 31  1  0  0  0  0
 17 32  1  0  0  0  0
 17 33  1  0  0  0  0
 18 20  2  0  0  0  0
 19 36  1  0  0  0  0
 20 21  1  0  0  0  0
 23 24  1  0  0  0  0
 24 25  2  0  0  0  0
 25 26  1  0  0  0  0
 25 40  1  0  0  0  0
 26 27  2  0  0  0  0
 26 41  1  0  0  0  0
 27 42  1  0  0  0  0
M  END
> <PUBCHEM_COMPOUND_CID>
136218126

> <PUBCHEM_COMPOUND_CANONICALIZED>
1

> <PUBCHEM_CACTVS_COMPLEXITY>
646

> <PUBCHEM_CACTVS_HBOND_ACCEPTOR>
9

> <PUBCHEM_CACTVS_HBOND_DONOR>
5

> <PUBCHEM_CACTVS_ROTATABLE_BOND>
4

> <PUBCHEM_CACTVS_SUBSKEYS>
AAADccBzuAAAAAAAAAAAAAAAAAAAAWJEgAAgAAAAAAAAAEAB4AAAHgAQCAAACBzhlgY1tJfMFkCoAa9z9AKCiC03MKAJ2AHuXMiPfjrE/T+fWajvwRPbqeb4NwIAAAAAAAAAAAAAAAAAAAAAAAAAAAAAAA==

> <PUBCHEM_IUPAC_OPENEYE_NAME>
N-[9-[(2R,3R,4S,5R)-3,4-dihydroxy-5-(hydroxymethyl)tetrahydrofuran-2-yl]-6-oxo-1H-purin-2-yl]furan-2-carboxamide

> <PUBCHEM_IUPAC_CAS_NAME>
N-[9-[(2R,3R,4S,5R)-3,4-dihydroxy-5-(hydroxymethyl)-2-oxolanyl]-6-oxo-1H-purin-2-yl]-2-furancarboxamide

> <PUBCHEM_IUPAC_NAME_MARKUP>
<I>N</I>-[9-[(2<I>R</I>,3<I>R</I>,4<I>S</I>,5<I>R</I>)-3,4-dihydroxy-5-(hydroxymethyl)oxolan-2-yl]-6-oxo-1<I>H</I>-purin-2-yl]furan-2-carboxamide

> <PUBCHEM_IUPAC_NAME>
N-[9-[(2R,3R,4S,5R)-3,4-dihydroxy-5-(hydroxymethyl)oxolan-2-yl]-6-oxo-1H-purin-2-yl]furan-2-carboxamide

> <PUBCHEM_IUPAC_SYSTEMATIC_NAME>
N-[9-[(2R,3R,4S,5R)-5-(hydroxymethyl)-3,4-bis(oxidanyl)oxolan-2-yl]-6-oxidanylidene-1H-purin-2-yl]furan-2-carboxamide

> <PUBCHEM_IUPAC_TRADITIONAL_NAME>
N-[9-[(2R,3R,4S,5R)-3,4-dihydroxy-5-methylol-tetrahydrofuran-2-yl]-6-keto-1H-purin-2-yl]-2-furamide

> <PUBCHEM_IUPAC_INCHI>
InChI=1S/C15H15N5O7/c21-4-7-9(22)10(23)14(27-7)20-5-16-8-11(20)17-15(19-13(8)25)18-12(24)6-2-1-3-26-6/h1-3,5,7,9-10,14,21-23H,4H2,(H2,17,18,19,24,25)/t7-,9-,10-,14-/m1/s1

> <PUBCHEM_IUPAC_INCHIKEY>
ODJCTETYPJNKQZ-AKAIJSEGSA-N

> <PUBCHEM_XLOGP3>
-0.7

> <PUBCHEM_EXACT_MASS>
377.09714783

> <PUBCHEM_MOLECULAR_FORMULA>
C15H15N5O7

> <PUBCHEM_MOLECULAR_WEIGHT>
377.31

> <PUBCHEM_OPENEYE_CAN_SMILES>
C1=COC(=C1)C(=O)NC2=NC3=C(C(=O)N2)N=CN3C4C(C(C(O4)CO)O)O

> <PUBCHEM_OPENEYE_ISO_SMILES>
C1=COC(=C1)C(=O)NC2=NC3=C(C(=O)N2)N=CN3[C@H]4[C@@H]([C@@H]([C@H](O4)CO)O)O

> <PUBCHEM_CACTVS_TPSA>
171

> <PUBCHEM_MONOISOTOPIC_WEIGHT>
377.09714783

> <PUBCHEM_TOTAL_CHARGE>
0

> <PUBCHEM_HEAVY_ATOM_COUNT>
27

> <PUBCHEM_ATOM_DEF_STEREO_COUNT>
4

> <PUBCHEM_ATOM_UDEF_STEREO_COUNT>
0

> <PUBCHEM_BOND_DEF_STEREO_COUNT>
0

> <PUBCHEM_BOND_UDEF_STEREO_COUNT>
0

> <PUBCHEM_ISOTOPIC_ATOM_COUNT>
0

> <PUBCHEM_COMPONENT_COUNT>
1

> <PUBCHEM_CACTVS_TAUTO_COUNT>
-1

> <PUBCHEM_COORDINATE_TYPE>
1
5
255

> <PUBCHEM_BONDANNOTATIONS>
10  18  8
10  22  8
11  21  8
11  22  8
16  17  5
18  20  8
13  2  6
20  21  8
24  25  8
25  26  8
26  27  8
15  3  6
6  24  8
6  27  8
14  8  5
8  18  8
8  19  8
9  19  8
9  20  8

$$$$
