 
  -OEChem-10192103552D

 48 50  0     1  0  0  0  0  0999 V2000
    7.0006    0.9502    0.0000 O   0  0  0  0  0  0  0  0  0  0  0  0
    9.3466   -0.1416    0.0000 O   0  0  0  0  0  0  0  0  0  0  0  0
    9.3504    2.0340    0.0000 O   0  0  0  0  0  0  0  0  0  0  0  0
    6.3046    2.9194    0.0000 O   0  0  0  0  0  0  0  0  0  0  0  0
   10.3671    1.2579    0.0000 O   0  0  0  0  0  0  0  0  0  0  0  0
    8.3347    3.4370    0.0000 O   0  0  0  0  0  0  0  0  0  0  0  0
    5.4641   -3.6150    0.0000 O   0  0  0  0  0  0  0  0  0  0  0  0
    2.8660   -2.1150    0.0000 O   0  0  0  0  0  0  0  0  0  0  0  0
    7.2764   -0.8103    0.0000 N   0  0  0  0  0  0  0  0  0  0  0  0
    7.2764   -2.4198    0.0000 N   0  0  0  0  0  0  0  0  0  0  0  0
    5.4641   -0.6150    0.0000 N   0  0  0  0  0  0  0  0  0  0  0  0
    4.5981   -2.1150    0.0000 N   0  0  0  0  0  0  0  0  0  0  0  0
    3.7320   -0.6150    0.0000 N   0  0  0  0  0  0  0  0  0  0  0  0
    8.5386    0.4476    0.0000 C   0  0  2  0  0  0  0  0  0  0  0  0
    8.5403    1.4476    0.0000 C   0  0  1  0  0  0  0  0  0  0  0  0
    7.5870    0.1402    0.0000 C   0  0  1  0  0  0  0  0  0  0  0  0
    7.5898    1.7582    0.0000 C   0  0  1  0  0  0  0  0  0  0  0  0
    7.2824    2.7098    0.0000 C   0  0  0  0  0  0  0  0  0  0  0  0
    6.3301   -1.1151    0.0000 C   0  0  0  0  0  0  0  0  0  0  0  0
    7.8600   -1.6151    0.0000 C   0  0  0  0  0  0  0  0  0  0  0  0
    6.3301   -2.1150    0.0000 C   0  0  0  0  0  0  0  0  0  0  0  0
   10.2608    0.2635    0.0000 C   0  0  0  0  0  0  0  0  0  0  0  0
    9.2476    3.0287    0.0000 C   0  0  0  0  0  0  0  0  0  0  0  0
    5.4641   -2.6150    0.0000 C   0  0  0  0  0  0  0  0  0  0  0  0
    4.5981   -1.1151    0.0000 C   0  0  0  0  0  0  0  0  0  0  0  0
   11.0688   -0.3256    0.0000 C   0  0  0  0  0  0  0  0  0  0  0  0
   10.0576    3.6150    0.0000 C   0  0  0  0  0  0  0  0  0  0  0  0
    2.8660   -1.1151    0.0000 C   0  0  0  0  0  0  0  0  0  0  0  0
    2.0000   -0.6150    0.0000 C   0  0  0  0  0  0  0  0  0  0  0  0
    9.0915    0.7281    0.0000 H   0  0  0  0  0  0  0  0  0  0  0  0
    8.4444    2.0601    0.0000 H   0  0  0  0  0  0  0  0  0  0  0  0
    6.9745    0.0443    0.0000 H   0  0  0  0  0  0  0  0  0  0  0  0
    6.9776    1.8563    0.0000 H   0  0  0  0  0  0  0  0  0  0  0  0
    7.8966    2.7950    0.0000 H   0  0  0  0  0  0  0  0  0  0  0  0
    7.3052    3.3294    0.0000 H   0  0  0  0  0  0  0  0  0  0  0  0
    8.4800   -1.6151    0.0000 H   0  0  0  0  0  0  0  0  0  0  0  0
    6.1141    3.5094    0.0000 H   0  0  0  0  0  0  0  0  0  0  0  0
    4.0611   -2.4250    0.0000 H   0  0  0  0  0  0  0  0  0  0  0  0
   10.7035   -0.8266    0.0000 H   0  0  0  0  0  0  0  0  0  0  0  0
   11.5698   -0.6909    0.0000 H   0  0  0  0  0  0  0  0  0  0  0  0
   11.4341    0.1753    0.0000 H   0  0  0  0  0  0  0  0  0  0  0  0
   10.4211    3.1128    0.0000 H   0  0  0  0  0  0  0  0  0  0  0  0
   10.5598    3.9786    0.0000 H   0  0  0  0  0  0  0  0  0  0  0  0
    9.6940    4.1173    0.0000 H   0  0  0  0  0  0  0  0  0  0  0  0
    3.7320    0.0050    0.0000 H   0  0  0  0  0  0  0  0  0  0  0  0
    2.3100   -0.0781    0.0000 H   0  0  0  0  0  0  0  0  0  0  0  0
    1.4631   -0.3050    0.0000 H   0  0  0  0  0  0  0  0  0  0  0  0
    1.6900   -1.1520    0.0000 H   0  0  0  0  0  0  0  0  0  0  0  0
  1 16  1  0  0  0  0
  1 17  1  0  0  0  0
 14  2  1  1  0  0  0
  2 22  1  0  0  0  0
 15  3  1  1  0  0  0
  3 23  1  0  0  0  0
  4 18  1  0  0  0  0
  4 37  1  0  0  0  0
  5 22  2  0  0  0  0
  6 23  2  0  0  0  0
  7 24  2  0  0  0  0
  8 28  2  0  0  0  0
 16  9  1  6  0  0  0
  9 19  1  0  0  0  0
  9 20  1  0  0  0  0
 10 20  2  0  0  0  0
 10 21  1  0  0  0  0
 11 19  1  0  0  0  0
 11 25  2  0  0  0  0
 12 24  1  0  0  0  0
 12 25  1  0  0  0  0
 12 38  1  0  0  0  0
 13 25  1  0  0  0  0
 13 28  1  0  0  0  0
 13 45  1  0  0  0  0
 14 15  1  0  0  0  0
 14 16  1  0  0  0  0
 14 30  1  0  0  0  0
 15 17  1  0  0  0  0
 15 31  1  0  0  0  0
 16 32  1  0  0  0  0
 17 18  1  6  0  0  0
 17 33  1  0  0  0  0
 18 34  1  0  0  0  0
 18 35  1  0  0  0  0
 19 21  2  0  0  0  0
 20 36  1  0  0  0  0
 21 24  1  0  0  0  0
 22 26  1  0  0  0  0
 23 27  1  0  0  0  0
 26 39  1  0  0  0  0
 26 40  1  0  0  0  0
 26 41  1  0  0  0  0
 27 42  1  0  0  0  0
 27 43  1  0  0  0  0
 27 44  1  0  0  0  0
 28 29  1  0  0  0  0
 29 46  1  0  0  0  0
 29 47  1  0  0  0  0
 29 48  1  0  0  0  0
M  END
> <PUBCHEM_COMPOUND_CID>
136814424

> <PUBCHEM_COMPOUND_CANONICALIZED>
1

> <PUBCHEM_CACTVS_COMPLEXITY>
743

> <PUBCHEM_CACTVS_HBOND_ACCEPTOR>
10

> <PUBCHEM_CACTVS_HBOND_DONOR>
3

> <PUBCHEM_CACTVS_ROTATABLE_BOND>
7

> <PUBCHEM_CACTVS_SUBSKEYS>
AAADceB7vAAAAAAAAAAAAAAAAAAAAWJAAAAgAAAAAAAAAEABgAAAHgAQCAAACBzhlgYHuBfMFgCoAQfxfACAgC0XEKABUAGoVECDWApAyCAfQIgPEQLTAGDwMAIAAAAAAAAAAAAAAAAAAAAAAAAAAAAAAA==

> <PUBCHEM_IUPAC_OPENEYE_NAME>
[(2R,3R,4R,5R)-5-(2-acetamido-6-oxo-1H-purin-9-yl)-4-acetoxy-2-(hydroxymethyl)tetrahydrofuran-3-yl] acetate

> <PUBCHEM_IUPAC_CAS_NAME>
acetic acid [(2R,3R,4R,5R)-5-(2-acetamido-6-oxo-1H-purin-9-yl)-4-acetyloxy-2-(hydroxymethyl)-3-oxolanyl] ester

> <PUBCHEM_IUPAC_NAME_MARKUP>
[(2<I>R</I>,3<I>R</I>,4<I>R</I>,5<I>R</I>)-5-(2-acetamido-6-oxo-1<I>H</I>-purin-9-yl)-4-acetyloxy-2-(hydroxymethyl)oxolan-3-yl] acetate

> <PUBCHEM_IUPAC_NAME>
[(2R,3R,4R,5R)-5-(2-acetamido-6-oxo-1H-purin-9-yl)-4-acetyloxy-2-(hydroxymethyl)oxolan-3-yl] acetate

> <PUBCHEM_IUPAC_SYSTEMATIC_NAME>
[(2R,3R,4R,5R)-5-(2-acetamido-6-oxidanylidene-1H-purin-9-yl)-4-acetyloxy-2-(hydroxymethyl)oxolan-3-yl] ethanoate

> <PUBCHEM_IUPAC_TRADITIONAL_NAME>
acetic acid [(2R,3R,4R,5R)-5-(2-acetamido-6-keto-1H-purin-9-yl)-4-acetoxy-2-methylol-tetrahydrofuran-3-yl] ester

> <PUBCHEM_IUPAC_INCHI>
InChI=1S/C16H19N5O8/c1-6(23)18-16-19-13-10(14(26)20-16)17-5-21(13)15-12(28-8(3)25)11(27-7(2)24)9(4-22)29-15/h5,9,11-12,15,22H,4H2,1-3H3,(H2,18,19,20,23,26)/t9-,11-,12-,15-/m1/s1

> <PUBCHEM_IUPAC_INCHIKEY>
KYQBEZWLVKJJHO-SDBHATRESA-N

> <PUBCHEM_XLOGP3>
-1.1

> <PUBCHEM_EXACT_MASS>
409.12336258

> <PUBCHEM_MOLECULAR_FORMULA>
C16H19N5O8

> <PUBCHEM_MOLECULAR_WEIGHT>
409.35

> <PUBCHEM_OPENEYE_CAN_SMILES>
CC(=O)NC1=NC2=C(C(=O)N1)N=CN2C3C(C(C(O3)CO)OC(=O)C)OC(=O)C

> <PUBCHEM_OPENEYE_ISO_SMILES>
CC(=O)NC1=NC2=C(C(=O)N1)N=CN2[C@H]3[C@@H]([C@@H]([C@H](O3)CO)OC(=O)C)OC(=O)C

> <PUBCHEM_CACTVS_TPSA>
170

> <PUBCHEM_MONOISOTOPIC_WEIGHT>
409.12336258

> <PUBCHEM_TOTAL_CHARGE>
0

> <PUBCHEM_HEAVY_ATOM_COUNT>
29

> <PUBCHEM_ATOM_DEF_STEREO_COUNT>
4

> <PUBCHEM_ATOM_UDEF_STEREO_COUNT>
0

> <PUBCHEM_BOND_DEF_STEREO_COUNT>
0

> <PUBCHEM_BOND_UDEF_STEREO_COUNT>
0

> <PUBCHEM_ISOTOPIC_ATOM_COUNT>
0

> <PUBCHEM_COMPONENT_COUNT>
1

> <PUBCHEM_CACTVS_TAUTO_COUNT>
-1

> <PUBCHEM_COORDINATE_TYPE>
1
5
255

> <PUBCHEM_BONDANNOTATIONS>
10  20  8
10  21  8
11  19  8
11  25  8
12  24  8
12  25  8
17  18  6
19  21  8
14  2  5
21  24  8
15  3  5
16  9  6
9  19  8
9  20  8

$$$$
