 
  -OEChem-10192104292D

 65 68  0     1  0  0  0  0  0999 V2000
    6.8671    0.3704    0.0000 O   0  0  0  0  0  0  0  0  0  0  0  0
    4.2690   -2.1296    0.0000 O   0  0  0  0  0  0  0  0  0  0  0  0
    6.0010   -2.1296    0.0000 O   0  0  0  0  0  0  0  0  0  0  0  0
    7.7331   -2.1296    0.0000 O   0  0  0  0  0  0  0  0  0  0  0  0
    9.4651   -1.1296    0.0000 O   0  0  0  0  0  0  0  0  0  0  0  0
    7.7331    1.8704    0.0000 O   0  0  0  0  0  0  0  0  0  0  0  0
    6.0010   -4.1296    0.0000 O   0  0  0  0  0  0  0  0  0  0  0  0
    4.2690   -5.1296    0.0000 O   0  0  0  0  0  0  0  0  0  0  0  0
    9.4651    0.8704    0.0000 O   0  0  0  0  0  0  0  0  0  0  0  0
    2.5369   -4.1296    0.0000 O   0  0  0  0  0  0  0  0  0  0  0  0
    2.5369   -1.1296    0.0000 O   0  0  0  0  0  0  0  0  0  0  0  0
    7.7771    3.8772    0.0000 O   0  0  0  0  0  0  0  0  0  0  0  0
    6.0010    0.8704    0.0000 O   0  0  0  0  0  0  0  0  0  0  0  0
    4.2690    1.8704    0.0000 O   0  0  0  0  0  0  0  0  0  0  0  0
    8.6530    5.4155    0.0000 O   0  0  0  0  0  0  0  0  0  0  0  0
    6.8671   -0.6296    0.0000 C   0  0  1  0  0  0  0  0  0  0  0  0
    7.7331   -1.1296    0.0000 C   0  0  2  0  0  0  0  0  0  0  0  0
    8.5991   -0.6296    0.0000 C   0  0  1  0  0  0  0  0  0  0  0  0
    5.1350   -3.6296    0.0000 C   0  0  2  0  0  0  0  0  0  0  0  0
    4.2690   -4.1296    0.0000 C   0  0  2  0  0  0  0  0  0  0  0  0
    8.5991    0.3704    0.0000 C   0  0  2  0  0  0  0  0  0  0  0  0
    5.1350   -2.6296    0.0000 C   0  0  2  0  0  0  0  0  0  0  0  0
    3.4030   -3.6296    0.0000 C   0  0  1  0  0  0  0  0  0  0  0  0
    3.4030   -2.6296    0.0000 C   0  0  1  0  0  0  0  0  0  0  0  0
    7.7331    0.8704    0.0000 C   0  0  1  0  0  0  0  0  0  0  0  0
    6.0010   -1.1296    0.0000 C   0  0  0  0  0  0  0  0  0  0  0  0
    2.5369   -2.1296    0.0000 C   0  0  0  0  0  0  0  0  0  0  0  0
    6.8671    2.3704    0.0000 C   0  0  0  0  0  0  0  0  0  0  0  0
    6.8671    3.3704    0.0000 C   0  0  0  0  0  0  0  0  0  0  0  0
    6.0010    1.8704    0.0000 C   0  0  0  0  0  0  0  0  0  0  0  0
    6.0010    3.8704    0.0000 C   0  0  0  0  0  0  0  0  0  0  0  0
    5.1350    2.3704    0.0000 C   0  0  0  0  0  0  0  0  0  0  0  0
    5.1350    3.3704    0.0000 C   0  0  0  0  0  0  0  0  0  0  0  0
    5.9850    4.9119    0.0000 C   0  0  0  0  0  0  0  0  0  0  0  0
    7.7851    4.9188    0.0000 C   0  0  0  0  0  0  0  0  0  0  0  0
    6.8830    5.4396    0.0000 C   0  0  0  0  0  0  0  0  0  0  0  0
    3.4030    2.3704    0.0000 C   0  0  0  0  0  0  0  0  0  0  0  0
    6.3301   -0.3196    0.0000 H   0  0  0  0  0  0  0  0  0  0  0  0
    8.2700   -1.4396    0.0000 H   0  0  0  0  0  0  0  0  0  0  0  0
    9.1360   -0.3196    0.0000 H   0  0  0  0  0  0  0  0  0  0  0  0
    5.1350   -4.2496    0.0000 H   0  0  0  0  0  0  0  0  0  0  0  0
    3.7320   -4.4396    0.0000 H   0  0  0  0  0  0  0  0  0  0  0  0
    8.5991    0.9904    0.0000 H   0  0  0  0  0  0  0  0  0  0  0  0
    5.1350   -2.0096    0.0000 H   0  0  0  0  0  0  0  0  0  0  0  0
    3.4030   -4.2496    0.0000 H   0  0  0  0  0  0  0  0  0  0  0  0
    3.4030   -2.0096    0.0000 H   0  0  0  0  0  0  0  0  0  0  0  0
    7.1962    1.1804    0.0000 H   0  0  0  0  0  0  0  0  0  0  0  0
    5.7890   -0.5470    0.0000 H   0  0  0  0  0  0  0  0  0  0  0  0
    5.3905   -1.2373    0.0000 H   0  0  0  0  0  0  0  0  0  0  0  0
    1.9264   -2.0220    0.0000 H   0  0  0  0  0  0  0  0  0  0  0  0
    2.3249   -2.7122    0.0000 H   0  0  0  0  0  0  0  0  0  0  0  0
    8.2700   -2.4396    0.0000 H   0  0  0  0  0  0  0  0  0  0  0  0
   10.0021   -0.8196    0.0000 H   0  0  0  0  0  0  0  0  0  0  0  0
    6.5380   -3.8196    0.0000 H   0  0  0  0  0  0  0  0  0  0  0  0
    3.7320   -5.4396    0.0000 H   0  0  0  0  0  0  0  0  0  0  0  0
   10.0021    0.5604    0.0000 H   0  0  0  0  0  0  0  0  0  0  0  0
    2.0000   -3.8196    0.0000 H   0  0  0  0  0  0  0  0  0  0  0  0
    2.0000   -0.8196    0.0000 H   0  0  0  0  0  0  0  0  0  0  0  0
    4.5981    3.6804    0.0000 H   0  0  0  0  0  0  0  0  0  0  0  0
    5.4445    5.2156    0.0000 H   0  0  0  0  0  0  0  0  0  0  0  0
    5.4641    0.5604    0.0000 H   0  0  0  0  0  0  0  0  0  0  0  0
    6.8806    6.0596    0.0000 H   0  0  0  0  0  0  0  0  0  0  0  0
    3.7130    2.9073    0.0000 H   0  0  0  0  0  0  0  0  0  0  0  0
    2.8660    2.6804    0.0000 H   0  0  0  0  0  0  0  0  0  0  0  0
    3.0930    1.8334    0.0000 H   0  0  0  0  0  0  0  0  0  0  0  0
  1 16  1  0  0  0  0
  1 25  1  0  0  0  0
  2 22  1  0  0  0  0
  2 24  1  0  0  0  0
 22  3  1  6  0  0  0
  3 26  1  0  0  0  0
 17  4  1  6  0  0  0
  4 52  1  0  0  0  0
 18  5  1  1  0  0  0
  5 53  1  0  0  0  0
 25  6  1  1  0  0  0
  6 28  1  0  0  0  0
 19  7  1  6  0  0  0
  7 54  1  0  0  0  0
 20  8  1  1  0  0  0
  8 55  1  0  0  0  0
 21  9  1  6  0  0  0
  9 56  1  0  0  0  0
 23 10  1  6  0  0  0
 10 57  1  0  0  0  0
 11 27  1  0  0  0  0
 11 58  1  0  0  0  0
 12 29  1  0  0  0  0
 12 35  1  0  0  0  0
 13 30  1  0  0  0  0
 13 61  1  0  0  0  0
 14 32  1  0  0  0  0
 14 37  1  0  0  0  0
 15 35  2  0  0  0  0
 16 17  1  0  0  0  0
 16 26  1  1  0  0  0
 16 38  1  0  0  0  0
 17 18  1  0  0  0  0
 17 39  1  0  0  0  0
 18 21  1  0  0  0  0
 18 40  1  0  0  0  0
 19 20  1  0  0  0  0
 19 22  1  0  0  0  0
 19 41  1  0  0  0  0
 20 23  1  0  0  0  0
 20 42  1  0  0  0  0
 21 25  1  0  0  0  0
 21 43  1  0  0  0  0
 22 44  1  0  0  0  0
 23 24  1  0  0  0  0
 23 45  1  0  0  0  0
 24 27  1  1  0  0  0
 24 46  1  0  0  0  0
 25 47  1  0  0  0  0
 26 48  1  0  0  0  0
 26 49  1  0  0  0  0
 27 50  1  0  0  0  0
 27 51  1  0  0  0  0
 28 29  2  0  0  0  0
 28 30  1  0  0  0  0
 29 31  1  0  0  0  0
 30 32  2  0  0  0  0
 31 33  2  0  0  0  0
 31 34  1  0  0  0  0
 32 33  1  0  0  0  0
 33 59  1  0  0  0  0
 34 36  2  0  0  0  0
 34 60  1  0  0  0  0
 35 36  1  0  0  0  0
 36 62  1  0  0  0  0
 37 63  1  0  0  0  0
 37 64  1  0  0  0  0
 37 65  1  0  0  0  0
M  END
> <PUBCHEM_COMPOUND_CID>
46841807

> <PUBCHEM_COMPOUND_CANONICALIZED>
1

> <PUBCHEM_CACTVS_COMPLEXITY>
811

> <PUBCHEM_CACTVS_HBOND_ACCEPTOR>
15

> <PUBCHEM_CACTVS_HBOND_DONOR>
8

> <PUBCHEM_CACTVS_ROTATABLE_BOND>
7

> <PUBCHEM_CACTVS_SUBSKEYS>
AAADceB4PAAAAAAAAAAAAAAAAAAAAAAAAAA0SIEAAAAAAACBAAAAGgAACAAADBSwmAMyDoAABgCIAiDSCAACCAAgIAAIiAAGiMgdNyKGMRqieiOlwBUPuYfA4DwOIQABCAAIQABCAAIQABCAAAAAAAAAAA==

> <PUBCHEM_IUPAC_OPENEYE_NAME>
7-hydroxy-6-methoxy-8-[(2S,3R,4S,5S,6R)-3,4,5-trihydroxy-6-[[(2S,3R,4S,5S,6R)-3,4,5-trihydroxy-6-(hydroxymethyl)tetrahydropyran-2-yl]oxymethyl]tetrahydropyran-2-yl]oxy-chromen-2-one

> <PUBCHEM_IUPAC_CAS_NAME>
7-hydroxy-6-methoxy-8-[[(2S,3R,4S,5S,6R)-3,4,5-trihydroxy-6-[[(2S,3R,4S,5S,6R)-3,4,5-trihydroxy-6-(hydroxymethyl)-2-oxanyl]oxymethyl]-2-oxanyl]oxy]-1-benzopyran-2-one

> <PUBCHEM_IUPAC_NAME_MARKUP>
7-hydroxy-6-methoxy-8-[(2<I>S</I>,3<I>R</I>,4<I>S</I>,5<I>S</I>,6<I>R</I>)-3,4,5-trihydroxy-6-[[(2<I>S</I>,3<I>R</I>,4<I>S</I>,5<I>S</I>,6<I>R</I>)-3,4,5-trihydroxy-6-(hydroxymethyl)oxan-2-yl]oxymethyl]oxan-2-yl]oxychromen-2-one

> <PUBCHEM_IUPAC_NAME>
7-hydroxy-6-methoxy-8-[(2S,3R,4S,5S,6R)-3,4,5-trihydroxy-6-[[(2S,3R,4S,5S,6R)-3,4,5-trihydroxy-6-(hydroxymethyl)oxan-2-yl]oxymethyl]oxan-2-yl]oxychromen-2-one

> <PUBCHEM_IUPAC_SYSTEMATIC_NAME>
8-[(2S,3R,4S,5S,6R)-6-[[(2S,3R,4S,5S,6R)-6-(hydroxymethyl)-3,4,5-tris(oxidanyl)oxan-2-yl]oxymethyl]-3,4,5-tris(oxidanyl)oxan-2-yl]oxy-6-methoxy-7-oxidanyl-chromen-2-one

> <PUBCHEM_IUPAC_TRADITIONAL_NAME>
7-hydroxy-6-methoxy-8-[(2S,3R,4S,5S,6R)-3,4,5-trihydroxy-6-[[(2S,3R,4S,5S,6R)-3,4,5-trihydroxy-6-methylol-tetrahydropyran-2-yl]oxymethyl]tetrahydropyran-2-yl]oxy-coumarin

> <PUBCHEM_IUPAC_INCHI>
InChI=1S/C22H28O15/c1-32-8-4-7-2-3-11(24)36-19(7)20(14(8)27)37-22-18(31)16(29)13(26)10(35-22)6-33-21-17(30)15(28)12(25)9(5-23)34-21/h2-4,9-10,12-13,15-18,21-23,25-31H,5-6H2,1H3/t9-,10-,12-,13-,15+,16+,17-,18-,21+,22+/m1/s1

> <PUBCHEM_IUPAC_INCHIKEY>
CCGNFTXRCFKZHP-GIHMRIMESA-N

> <PUBCHEM_XLOGP3_AA>
-2.8

> <PUBCHEM_EXACT_MASS>
532.14282018

> <PUBCHEM_MOLECULAR_FORMULA>
C22H28O15

> <PUBCHEM_MOLECULAR_WEIGHT>
532.4

> <PUBCHEM_OPENEYE_CAN_SMILES>
COC1=C(C(=C2C(=C1)C=CC(=O)O2)OC3C(C(C(C(O3)COC4C(C(C(C(O4)CO)O)O)O)O)O)O)O

> <PUBCHEM_OPENEYE_ISO_SMILES>
COC1=C(C(=C2C(=C1)C=CC(=O)O2)O[C@H]3[C@@H]([C@H]([C@@H]([C@H](O3)CO[C@@H]4[C@@H]([C@H]([C@@H]([C@H](O4)CO)O)O)O)O)O)O)O

> <PUBCHEM_CACTVS_TPSA>
234

> <PUBCHEM_MONOISOTOPIC_WEIGHT>
532.14282018

> <PUBCHEM_TOTAL_CHARGE>
0

> <PUBCHEM_HEAVY_ATOM_COUNT>
37

> <PUBCHEM_ATOM_DEF_STEREO_COUNT>
10

> <PUBCHEM_ATOM_UDEF_STEREO_COUNT>
0

> <PUBCHEM_BOND_DEF_STEREO_COUNT>
0

> <PUBCHEM_BOND_UDEF_STEREO_COUNT>
0

> <PUBCHEM_ISOTOPIC_ATOM_COUNT>
0

> <PUBCHEM_COMPONENT_COUNT>
1

> <PUBCHEM_CACTVS_TAUTO_COUNT>
-1

> <PUBCHEM_COORDINATE_TYPE>
1
5
255

> <PUBCHEM_BONDANNOTATIONS>
23  10  6
12  29  8
12  35  8
16  26  5
24  27  5
28  29  8
28  30  8
29  31  8
22  3  6
30  32  8
31  33  8
31  34  8
32  33  8
34  36  8
35  36  8
17  4  6
18  5  5
25  6  5
19  7  6
20  8  5
21  9  6

$$$$
