 
  -OEChem-10192104042D

 66 67  0     1  0  0  0  0  0999 V2000
   11.1972   -3.1550    0.0000 O   0  0  0  0  0  0  0  0  0  0  0  0
    8.5991   -1.6550    0.0000 O   0  0  0  0  0  0  0  0  0  0  0  0
   12.0632   -1.6550    0.0000 O   0  0  0  0  0  0  0  0  0  0  0  0
    6.8671   -1.6550    0.0000 O   0  0  0  0  0  0  0  0  0  0  0  0
   12.9292   -0.1550    0.0000 O   0  0  0  0  0  0  0  0  0  0  0  0
    5.1350   -1.6550    0.0000 O   0  0  0  0  0  0  0  0  0  0  0  0
   12.9292    2.8450    0.0000 O   0  0  0  0  0  0  0  0  0  0  0  0
    2.5369   -3.1550    0.0000 O   0  0  0  0  0  0  0  0  0  0  0  0
   10.3312   -2.6550    0.0000 C   0  0  3  0  0  0  0  0  0  0  0  0
    8.5991   -2.6550    0.0000 C   0  0  3  0  0  0  0  0  0  0  0  0
    9.4651   -3.1550    0.0000 C   0  0  0  0  0  0  0  0  0  0  0  0
   10.3312   -1.6550    0.0000 C   0  0  0  0  0  0  0  0  0  0  0  0
    7.7331   -3.1550    0.0000 C   0  0  0  0  0  0  0  0  0  0  0  0
   11.1972   -1.1550    0.0000 C   0  0  3  0  0  0  0  0  0  0  0  0
    6.8671   -2.6550    0.0000 C   0  0  3  0  0  0  0  0  0  0  0  0
   11.1972   -0.1550    0.0000 C   0  0  0  0  0  0  0  0  0  0  0  0
    6.0010   -3.1550    0.0000 C   0  0  0  0  0  0  0  0  0  0  0  0
   12.0632   -2.6550    0.0000 C   0  0  3  0  0  0  0  0  0  0  0  0
    7.7331   -1.1550    0.0000 C   0  0  3  0  0  0  0  0  0  0  0  0
   12.0632    0.3450    0.0000 C   0  0  3  0  0  0  0  0  0  0  0  0
    5.1350   -2.6550    0.0000 C   0  0  3  0  0  0  0  0  0  0  0  0
   12.0632    1.3450    0.0000 C   0  0  0  0  0  0  0  0  0  0  0  0
   12.9292   -3.1550    0.0000 C   0  0  0  0  0  0  0  0  0  0  0  0
    7.7331   -0.1550    0.0000 C   0  0  0  0  0  0  0  0  0  0  0  0
    4.2690   -3.1550    0.0000 C   0  0  0  0  0  0  0  0  0  0  0  0
   12.9292    1.8450    0.0000 C   0  0  3  0  0  0  0  0  0  0  0  0
    3.4030   -2.6550    0.0000 C   0  0  0  0  0  0  0  0  0  0  0  0
   13.7953    1.3450    0.0000 C   0  0  0  0  0  0  0  0  0  0  0  0
   10.3312   -3.2750    0.0000 H   0  0  0  0  0  0  0  0  0  0  0  0
    9.1360   -2.3450    0.0000 H   0  0  0  0  0  0  0  0  0  0  0  0
    9.0666   -3.6300    0.0000 H   0  0  0  0  0  0  0  0  0  0  0  0
    9.8637   -3.6300    0.0000 H   0  0  0  0  0  0  0  0  0  0  0  0
   10.1191   -1.0724    0.0000 H   0  0  0  0  0  0  0  0  0  0  0  0
    9.7206   -1.7627    0.0000 H   0  0  0  0  0  0  0  0  0  0  0  0
    7.3346   -3.6300    0.0000 H   0  0  0  0  0  0  0  0  0  0  0  0
    8.1316   -3.6300    0.0000 H   0  0  0  0  0  0  0  0  0  0  0  0
   11.7341   -0.8450    0.0000 H   0  0  0  0  0  0  0  0  0  0  0  0
    6.3301   -2.3450    0.0000 H   0  0  0  0  0  0  0  0  0  0  0  0
   10.9851    0.4276    0.0000 H   0  0  0  0  0  0  0  0  0  0  0  0
   10.5866   -0.2627    0.0000 H   0  0  0  0  0  0  0  0  0  0  0  0
    5.6025   -3.6300    0.0000 H   0  0  0  0  0  0  0  0  0  0  0  0
    6.3996   -3.6300    0.0000 H   0  0  0  0  0  0  0  0  0  0  0  0
   12.6002   -2.3450    0.0000 H   0  0  0  0  0  0  0  0  0  0  0  0
    8.2700   -0.8450    0.0000 H   0  0  0  0  0  0  0  0  0  0  0  0
   12.6002    0.6550    0.0000 H   0  0  0  0  0  0  0  0  0  0  0  0
    5.6720   -2.3450    0.0000 H   0  0  0  0  0  0  0  0  0  0  0  0
   11.8512    1.9276    0.0000 H   0  0  0  0  0  0  0  0  0  0  0  0
   11.4526    1.2373    0.0000 H   0  0  0  0  0  0  0  0  0  0  0  0
   12.6192   -3.6919    0.0000 H   0  0  0  0  0  0  0  0  0  0  0  0
   13.4662   -3.4650    0.0000 H   0  0  0  0  0  0  0  0  0  0  0  0
   13.2392   -2.6181    0.0000 H   0  0  0  0  0  0  0  0  0  0  0  0
    8.3531   -0.1550    0.0000 H   0  0  0  0  0  0  0  0  0  0  0  0
    7.7331    0.4650    0.0000 H   0  0  0  0  0  0  0  0  0  0  0  0
    7.1131   -0.1550    0.0000 H   0  0  0  0  0  0  0  0  0  0  0  0
    3.8705   -3.6300    0.0000 H   0  0  0  0  0  0  0  0  0  0  0  0
    4.6675   -3.6300    0.0000 H   0  0  0  0  0  0  0  0  0  0  0  0
   12.3923    2.1550    0.0000 H   0  0  0  0  0  0  0  0  0  0  0  0
   13.4662    0.1550    0.0000 H   0  0  0  0  0  0  0  0  0  0  0  0
    3.8015   -2.1800    0.0000 H   0  0  0  0  0  0  0  0  0  0  0  0
    3.0044   -2.1800    0.0000 H   0  0  0  0  0  0  0  0  0  0  0  0
    4.5981   -1.3450    0.0000 H   0  0  0  0  0  0  0  0  0  0  0  0
   13.4853    0.8081    0.0000 H   0  0  0  0  0  0  0  0  0  0  0  0
   14.3322    1.0350    0.0000 H   0  0  0  0  0  0  0  0  0  0  0  0
   14.1053    1.8819    0.0000 H   0  0  0  0  0  0  0  0  0  0  0  0
   13.4662    3.1550    0.0000 H   0  0  0  0  0  0  0  0  0  0  0  0
    2.0000   -2.8450    0.0000 H   0  0  0  0  0  0  0  0  0  0  0  0
  1  9  1  0  0  0  0
  1 18  1  0  0  0  0
  2 10  1  0  0  0  0
  2 19  1  0  0  0  0
  3 14  1  0  0  0  0
  3 18  1  0  0  0  0
  4 15  1  0  0  0  0
  4 19  1  0  0  0  0
  5 20  1  0  0  0  0
  5 58  1  0  0  0  0
  6 21  1  0  0  0  0
  6 61  1  0  0  0  0
  7 26  1  0  0  0  0
  7 65  1  0  0  0  0
  8 27  1  0  0  0  0
  8 66  1  0  0  0  0
  9 11  1  0  0  0  0
  9 12  1  0  0  0  0
  9 29  1  0  0  0  0
 10 11  1  0  0  0  0
 10 13  1  0  0  0  0
 10 30  1  0  0  0  0
 11 31  1  0  0  0  0
 11 32  1  0  0  0  0
 12 14  1  0  0  0  0
 12 33  1  0  0  0  0
 12 34  1  0  0  0  0
 13 15  1  0  0  0  0
 13 35  1  0  0  0  0
 13 36  1  0  0  0  0
 14 16  1  0  0  0  0
 14 37  1  0  0  0  0
 15 17  1  0  0  0  0
 15 38  1  0  0  0  0
 16 20  1  0  0  0  0
 16 39  1  0  0  0  0
 16 40  1  0  0  0  0
 17 21  1  0  0  0  0
 17 41  1  0  0  0  0
 17 42  1  0  0  0  0
 18 23  1  0  0  0  0
 18 43  1  0  0  0  0
 19 24  1  0  0  0  0
 19 44  1  0  0  0  0
 20 22  1  0  0  0  0
 20 45  1  0  0  0  0
 21 25  1  0  0  0  0
 21 46  1  0  0  0  0
 22 26  1  0  0  0  0
 22 47  1  0  0  0  0
 22 48  1  0  0  0  0
 23 49  1  0  0  0  0
 23 50  1  0  0  0  0
 23 51  1  0  0  0  0
 24 52  1  0  0  0  0
 24 53  1  0  0  0  0
 24 54  1  0  0  0  0
 25 27  1  0  0  0  0
 25 55  1  0  0  0  0
 25 56  1  0  0  0  0
 26 28  1  0  0  0  0
 26 57  1  0  0  0  0
 27 59  1  0  0  0  0
 27 60  1  0  0  0  0
 28 62  1  0  0  0  0
 28 63  1  0  0  0  0
 28 64  1  0  0  0  0
M  END
> <PUBCHEM_COMPOUND_CID>
132002365

> <PUBCHEM_COMPOUND_CANONICALIZED>
1

> <PUBCHEM_CACTVS_COMPLEXITY>
436

> <PUBCHEM_CACTVS_HBOND_ACCEPTOR>
8

> <PUBCHEM_CACTVS_HBOND_DONOR>
4

> <PUBCHEM_CACTVS_ROTATABLE_BOND>
10

> <PUBCHEM_CACTVS_SUBSKEYS>
AAADcfB4PAAAAAAAAAAAAAAAAAAAAAAAAAAkSAAAAAAAAAAAAAAAGgAACAAACBSwgAMCCAAABgAAAAAAAAAAAAAAAAAAAAAAAAAQEAIAAAAiQAAFAAAEAAGA4KwAAAAAAAAAAAAAAAAAAAAAAAAAAAAAAA==

> <PUBCHEM_IUPAC_OPENEYE_NAME>
1-[6-[[6-(2,4-dihydroxybutyl)-2-methyl-1,3-dioxan-4-yl]methyl]-2-methyl-1,3-dioxan-4-yl]pentane-2,4-diol

> <PUBCHEM_IUPAC_CAS_NAME>
1-[6-[[6-(2,4-dihydroxybutyl)-2-methyl-1,3-dioxan-4-yl]methyl]-2-methyl-1,3-dioxan-4-yl]pentane-2,4-diol

> <PUBCHEM_IUPAC_NAME_MARKUP>
1-[6-[[6-(2,4-dihydroxybutyl)-2-methyl-1,3-dioxan-4-yl]methyl]-2-methyl-1,3-dioxan-4-yl]pentane-2,4-diol

> <PUBCHEM_IUPAC_NAME>
1-[6-[[6-(2,4-dihydroxybutyl)-2-methyl-1,3-dioxan-4-yl]methyl]-2-methyl-1,3-dioxan-4-yl]pentane-2,4-diol

> <PUBCHEM_IUPAC_SYSTEMATIC_NAME>
1-[6-[[6-[2,4-bis(oxidanyl)butyl]-2-methyl-1,3-dioxan-4-yl]methyl]-2-methyl-1,3-dioxan-4-yl]pentane-2,4-diol

> <PUBCHEM_IUPAC_TRADITIONAL_NAME>
1-[6-[[6-(2,4-dihydroxybutyl)-2-methyl-1,3-dioxan-4-yl]methyl]-2-methyl-1,3-dioxan-4-yl]pentane-2,4-diol

> <PUBCHEM_IUPAC_INCHI>
InChI=1S/C20H38O8/c1-12(22)6-16(24)8-18-10-20(28-14(3)26-18)11-19-9-17(25-13(2)27-19)7-15(23)4-5-21/h12-24H,4-11H2,1-3H3

> <PUBCHEM_IUPAC_INCHIKEY>
SAEVPZVSBZBCLV-UHFFFAOYSA-N

> <PUBCHEM_XLOGP3_AA>
0.8

> <PUBCHEM_EXACT_MASS>
406.25666817

> <PUBCHEM_MOLECULAR_FORMULA>
C20H38O8

> <PUBCHEM_MOLECULAR_WEIGHT>
406.5

> <PUBCHEM_OPENEYE_CAN_SMILES>
CC1OC(CC(O1)CC(CCO)O)CC2CC(OC(O2)C)CC(CC(C)O)O

> <PUBCHEM_OPENEYE_ISO_SMILES>
CC1OC(CC(O1)CC(CCO)O)CC2CC(OC(O2)C)CC(CC(C)O)O

> <PUBCHEM_CACTVS_TPSA>
118

> <PUBCHEM_MONOISOTOPIC_WEIGHT>
406.25666817

> <PUBCHEM_TOTAL_CHARGE>
0

> <PUBCHEM_HEAVY_ATOM_COUNT>
28

> <PUBCHEM_ATOM_DEF_STEREO_COUNT>
0

> <PUBCHEM_ATOM_UDEF_STEREO_COUNT>
9

> <PUBCHEM_BOND_DEF_STEREO_COUNT>
0

> <PUBCHEM_BOND_UDEF_STEREO_COUNT>
0

> <PUBCHEM_ISOTOPIC_ATOM_COUNT>
0

> <PUBCHEM_COMPONENT_COUNT>
1

> <PUBCHEM_CACTVS_TAUTO_COUNT>
-1

> <PUBCHEM_COORDINATE_TYPE>
1
5
255

> <PUBCHEM_BONDANNOTATIONS>
10  11  3
14  16  3
15  17  3
18  23  3
19  24  3
20  5  3
21  6  3
26  7  3
9  11  3

$$$$
