 
  -OEChem-10192104292D

 68 70  0     1  0  0  0  0  0999 V2000
   10.9077   -1.2262    0.0000 O   0  0  0  0  0  0  0  0  0  0  0  0
    8.7937    0.5049    0.0000 O   0  0  0  0  0  0  0  0  0  0  0  0
   12.9177    0.6022    0.0000 O   0  0  0  0  0  0  0  0  0  0  0  0
    8.2565   -1.2132    0.0000 O   0  0  0  0  0  0  0  0  0  0  0  0
   14.0166   -0.7834    0.0000 O   0  0  0  0  0  0  0  0  0  0  0  0
    4.6445   -0.9555    0.0000 O   0  0  0  0  0  0  0  0  0  0  0  0
   17.2264    0.6801    0.0000 O   0  0  0  0  0  0  0  0  0  0  0  0
   12.0312    0.1826    0.0000 C   0  0  1  0  0  0  0  0  0  0  0  0
    9.7842    0.1826    0.0000 C   0  0  2  0  0  0  0  0  0  0  0  0
   11.8087   -0.7924    0.0000 C   0  0  2  0  0  0  0  0  0  0  0  0
   10.0068   -0.7924    0.0000 C   0  0  1  0  0  0  0  0  0  0  0  0
   11.4077    0.9644    0.0000 C   0  0  0  0  0  0  0  0  0  0  0  0
   10.4077    0.9644    0.0000 C   0  0  0  0  0  0  0  0  0  0  0  0
   12.4254   -1.5550    0.0000 C   0  0  0  0  0  0  0  0  0  0  0  0
    9.2542   -1.5125    0.0000 C   0  0  0  0  0  0  0  0  0  0  0  0
    8.0247   -0.1977    0.0000 C   0  0  1  0  0  0  0  0  0  0  0  0
   13.7997    0.1730    0.0000 C   0  0  2  0  0  0  0  0  0  0  0  0
   13.4061   -1.5511    0.0000 C   0  0  0  0  0  0  0  0  0  0  0  0
    7.0703    0.1008    0.0000 C   0  0  0  0  0  0  0  0  0  0  0  0
   14.5832    0.7944    0.0000 C   0  0  0  0  0  0  0  0  0  0  0  0
    6.3346   -0.5766    0.0000 C   0  0  0  0  0  0  0  0  0  0  0  0
   15.5131    0.4266    0.0000 C   0  0  0  0  0  0  0  0  0  0  0  0
    5.3802   -0.2782    0.0000 C   0  0  0  0  0  0  0  0  0  0  0  0
   16.2966    1.0480    0.0000 C   0  0  0  0  0  0  0  0  0  0  0  0
    3.6901   -0.6571    0.0000 C   0  0  0  0  0  0  0  0  0  0  0  0
   18.0100    1.3015    0.0000 C   0  0  0  0  0  0  0  0  0  0  0  0
    2.9544   -1.3344    0.0000 C   0  0  0  0  0  0  0  0  0  0  0  0
   18.9398    0.9337    0.0000 C   0  0  0  0  0  0  0  0  0  0  0  0
    2.0000   -1.0360    0.0000 C   0  0  0  0  0  0  0  0  0  0  0  0
   19.7233    1.5550    0.0000 C   0  0  0  0  0  0  0  0  0  0  0  0
   12.2231    1.0106    0.0000 H   0  0  0  0  0  0  0  0  0  0  0  0
    9.5400    0.9967    0.0000 H   0  0  0  0  0  0  0  0  0  0  0  0
   11.6223   -1.6217    0.0000 H   0  0  0  0  0  0  0  0  0  0  0  0
   10.1399   -1.6319    0.0000 H   0  0  0  0  0  0  0  0  0  0  0  0
   11.9663    1.2334    0.0000 H   0  0  0  0  0  0  0  0  0  0  0  0
   11.2698    1.5688    0.0000 H   0  0  0  0  0  0  0  0  0  0  0  0
   10.5457    1.5688    0.0000 H   0  0  0  0  0  0  0  0  0  0  0  0
    9.8491    1.2334    0.0000 H   0  0  0  0  0  0  0  0  0  0  0  0
   11.8683   -1.8273    0.0000 H   0  0  0  0  0  0  0  0  0  0  0  0
   12.5663   -2.1588    0.0000 H   0  0  0  0  0  0  0  0  0  0  0  0
    8.9770   -2.0671    0.0000 H   0  0  0  0  0  0  0  0  0  0  0  0
    9.7532   -1.8805    0.0000 H   0  0  0  0  0  0  0  0  0  0  0  0
    7.8903    0.4076    0.0000 H   0  0  0  0  0  0  0  0  0  0  0  0
   14.3845   -0.0329    0.0000 H   0  0  0  0  0  0  0  0  0  0  0  0
   13.2701   -2.1560    0.0000 H   0  0  0  0  0  0  0  0  0  0  0  0
   13.9653   -1.8188    0.0000 H   0  0  0  0  0  0  0  0  0  0  0  0
    7.3553    0.6514    0.0000 H   0  0  0  0  0  0  0  0  0  0  0  0
    6.5775    0.4770    0.0000 H   0  0  0  0  0  0  0  0  0  0  0  0
   14.9079    1.3226    0.0000 H   0  0  0  0  0  0  0  0  0  0  0  0
   14.1194    1.2059    0.0000 H   0  0  0  0  0  0  0  0  0  0  0  0
    6.0496   -1.1272    0.0000 H   0  0  0  0  0  0  0  0  0  0  0  0
    6.8274   -0.9528    0.0000 H   0  0  0  0  0  0  0  0  0  0  0  0
   15.1883   -0.1016    0.0000 H   0  0  0  0  0  0  0  0  0  0  0  0
   15.9768    0.0151    0.0000 H   0  0  0  0  0  0  0  0  0  0  0  0
    5.6652    0.2725    0.0000 H   0  0  0  0  0  0  0  0  0  0  0  0
    4.8874    0.0981    0.0000 H   0  0  0  0  0  0  0  0  0  0  0  0
   16.6213    1.5761    0.0000 H   0  0  0  0  0  0  0  0  0  0  0  0
   15.8328    1.4595    0.0000 H   0  0  0  0  0  0  0  0  0  0  0  0
    3.9751   -0.1064    0.0000 H   0  0  0  0  0  0  0  0  0  0  0  0
    3.1973   -0.2808    0.0000 H   0  0  0  0  0  0  0  0  0  0  0  0
   18.3347    1.8297    0.0000 H   0  0  0  0  0  0  0  0  0  0  0  0
   17.5462    1.7130    0.0000 H   0  0  0  0  0  0  0  0  0  0  0  0
    3.0901   -1.9394    0.0000 H   0  0  0  0  0  0  0  0  0  0  0  0
   19.0306    0.3203    0.0000 H   0  0  0  0  0  0  0  0  0  0  0  0
    1.8644   -0.4310    0.0000 H   0  0  0  0  0  0  0  0  0  0  0  0
    1.5439   -1.4559    0.0000 H   0  0  0  0  0  0  0  0  0  0  0  0
   20.2999    1.3270    0.0000 H   0  0  0  0  0  0  0  0  0  0  0  0
   19.6326    2.1684    0.0000 H   0  0  0  0  0  0  0  0  0  0  0  0
  1 10  1  0  0  0  0
  1 11  1  0  0  0  0
  2  9  1  0  0  0  0
  2 16  1  0  0  0  0
  3  8  1  0  0  0  0
  3 17  1  0  0  0  0
  4 15  1  0  0  0  0
  4 16  1  0  0  0  0
  5 17  1  0  0  0  0
  5 18  1  0  0  0  0
  6 23  1  0  0  0  0
  6 25  1  0  0  0  0
  7 24  1  0  0  0  0
  7 26  1  0  0  0  0
  8 10  1  0  0  0  0
  8 12  1  0  0  0  0
  8 31  1  6  0  0  0
  9 11  1  0  0  0  0
  9 13  1  0  0  0  0
  9 32  1  6  0  0  0
 10 14  1  0  0  0  0
 10 33  1  1  0  0  0
 11 15  1  0  0  0  0
 11 34  1  1  0  0  0
 12 13  1  0  0  0  0
 12 35  1  0  0  0  0
 12 36  1  0  0  0  0
 13 37  1  0  0  0  0
 13 38  1  0  0  0  0
 14 18  1  0  0  0  0
 14 39  1  0  0  0  0
 14 40  1  0  0  0  0
 15 41  1  0  0  0  0
 15 42  1  0  0  0  0
 16 19  1  1  0  0  0
 16 43  1  0  0  0  0
 17 20  1  1  0  0  0
 17 44  1  0  0  0  0
 18 45  1  0  0  0  0
 18 46  1  0  0  0  0
 19 21  1  0  0  0  0
 19 47  1  0  0  0  0
 19 48  1  0  0  0  0
 20 22  1  0  0  0  0
 20 49  1  0  0  0  0
 20 50  1  0  0  0  0
 21 23  1  0  0  0  0
 21 51  1  0  0  0  0
 21 52  1  0  0  0  0
 22 24  1  0  0  0  0
 22 53  1  0  0  0  0
 22 54  1  0  0  0  0
 23 55  1  0  0  0  0
 23 56  1  0  0  0  0
 24 57  1  0  0  0  0
 24 58  1  0  0  0  0
 25 27  1  0  0  0  0
 25 59  1  0  0  0  0
 25 60  1  0  0  0  0
 26 28  1  0  0  0  0
 26 61  1  0  0  0  0
 26 62  1  0  0  0  0
 27 29  2  0  0  0  0
 27 63  1  0  0  0  0
 28 30  2  0  0  0  0
 28 64  1  0  0  0  0
 29 65  1  0  0  0  0
 29 66  1  0  0  0  0
 30 67  1  0  0  0  0
 30 68  1  0  0  0  0
M  END
> <PUBCHEM_COMPOUND_CID>
101696968

> <PUBCHEM_COMPOUND_CANONICALIZED>
1

> <PUBCHEM_CACTVS_COMPLEXITY>
500

> <PUBCHEM_CACTVS_HBOND_ACCEPTOR>
7

> <PUBCHEM_CACTVS_HBOND_DONOR>
0

> <PUBCHEM_CACTVS_ROTATABLE_BOND>
12

> <PUBCHEM_CACTVS_SUBSKEYS>
AAADcfB4OAAAAAAAAAAAAAAAAAAAAAAAAAAkAAAABIkAAAAAAAAAGgAAAAAACBSwgAMACAAABACAACBCAAAAAAAAAAAIAAAAAAARBAIAIQAiAAAFAAAGIAHA4KwAAAAAAAAAAAAAAAAAAAAAAAAAAAAAAA==

> <PUBCHEM_IUPAC_OPENEYE_NAME>
(1S,3R,6R,8S,11R,13S)-6,13-bis(3-allyloxypropyl)-2,5,7,12,14-pentaoxatricyclo[9.5.0.03,8]hexadecane

> <PUBCHEM_IUPAC_CAS_NAME>
(1S,3R,6R,8S,11R,13S)-6,13-bis(3-prop-2-enoxypropyl)-2,5,7,12,14-pentaoxatricyclo[9.5.0.03,8]hexadecane

> <PUBCHEM_IUPAC_NAME_MARKUP>
(1<I>S</I>,3<I>R</I>,6<I>R</I>,8<I>S</I>,11<I>R</I>,13<I>S</I>)-6,13-bis(3-prop-2-enoxypropyl)-2,5,7,12,14-pentaoxatricyclo[9.5.0.0<SUP>3,8</SUP>]hexadecane

> <PUBCHEM_IUPAC_NAME>
(1S,3R,6R,8S,11R,13S)-6,13-bis(3-prop-2-enoxypropyl)-2,5,7,12,14-pentaoxatricyclo[9.5.0.03,8]hexadecane

> <PUBCHEM_IUPAC_SYSTEMATIC_NAME>
(1S,3R,6R,8S,11R,13S)-6,13-bis(3-prop-2-enoxypropyl)-2,5,7,12,14-pentaoxatricyclo[9.5.0.03,8]hexadecane

> <PUBCHEM_IUPAC_TRADITIONAL_NAME>
(1S,3R,6R,8S,11R,13S)-6,13-bis(3-allyloxypropyl)-2,5,7,12,14-pentaoxatricyclo[9.5.0.03,8]hexadecane

> <PUBCHEM_IUPAC_INCHI>
InChI=1S/C23H38O7/c1-3-12-24-14-5-7-22-26-16-11-20-18(29-22)9-10-19-21(28-20)17-27-23(30-19)8-6-15-25-13-4-2/h3-4,18-23H,1-2,5-17H2/t18-,19+,20+,21-,22+,23-/m1/s1

> <PUBCHEM_IUPAC_INCHIKEY>
MOJCHTPLJPNAJO-UOKSHHMNSA-N

> <PUBCHEM_XLOGP3_AA>
2.9

> <PUBCHEM_EXACT_MASS>
426.26175355

> <PUBCHEM_MOLECULAR_FORMULA>
C23H38O7

> <PUBCHEM_MOLECULAR_WEIGHT>
426.5

> <PUBCHEM_OPENEYE_CAN_SMILES>
C=CCOCCCC1OCCC2C(O1)CCC3C(O2)COC(O3)CCCOCC=C

> <PUBCHEM_OPENEYE_ISO_SMILES>
C=CCOCCC[C@H]1OCC[C@H]2[C@H](O1)CC[C@H]3[C@H](O2)CO[C@H](O3)CCCOCC=C

> <PUBCHEM_CACTVS_TPSA>
64.6

> <PUBCHEM_MONOISOTOPIC_WEIGHT>
426.26175355

> <PUBCHEM_TOTAL_CHARGE>
0

> <PUBCHEM_HEAVY_ATOM_COUNT>
30

> <PUBCHEM_ATOM_DEF_STEREO_COUNT>
6

> <PUBCHEM_ATOM_UDEF_STEREO_COUNT>
0

> <PUBCHEM_BOND_DEF_STEREO_COUNT>
0

> <PUBCHEM_BOND_UDEF_STEREO_COUNT>
0

> <PUBCHEM_ISOTOPIC_ATOM_COUNT>
0

> <PUBCHEM_COMPONENT_COUNT>
1

> <PUBCHEM_CACTVS_TAUTO_COUNT>
-1

> <PUBCHEM_COORDINATE_TYPE>
1
5
255

> <PUBCHEM_BONDANNOTATIONS>
10  33  5
11  34  5
16  19  5
17  20  5
8  31  6
9  32  6

$$$$
