 
  -OEChem-10192104332D

 54 57  0     1  0  0  0  0  0999 V2000
    5.1350   -2.2285    0.0000 O   0  0  0  0  0  0  0  0  0  0  0  0
    6.8671   -2.2285    0.0000 O   0  0  0  0  0  0  0  0  0  0  0  0
    5.1350   -5.2285    0.0000 O   0  0  0  0  0  0  0  0  0  0  0  0
    3.4030   -4.2285    0.0000 O   0  0  0  0  0  0  0  0  0  0  0  0
    6.8671   -4.2285    0.0000 O   0  0  0  0  0  0  0  0  0  0  0  0
    2.5369   -2.7285    0.0000 O   0  0  0  0  0  0  0  0  0  0  0  0
    5.1350   -1.2285    0.0000 O   0  0  0  0  0  0  0  0  0  0  0  0
   10.6538    4.3818    0.0000 O   0  5  0  0  0  0  0  0  0  0  0  0
    9.3647    5.5385    0.0000 O   0  0  0  0  0  0  0  0  0  0  0  0
    6.8671    1.7715    0.0000 N   0  0  0  0  0  0  0  0  0  0  0  0
    9.6753    4.5880    0.0000 N   0  3  0  0  0  0  0  0  0  0  0  0
    5.1350   -4.2285    0.0000 C   0  0  1  0  0  0  0  0  0  0  0  0
    4.2690   -3.7285    0.0000 C   0  0  1  0  0  0  0  0  0  0  0  0
    6.0010   -3.7285    0.0000 C   0  0  1  0  0  0  0  0  0  0  0  0
    4.2690   -2.7285    0.0000 C   0  0  1  0  0  0  0  0  0  0  0  0
    6.0010   -2.7285    0.0000 C   0  0  2  0  0  0  0  0  0  0  0  0
    3.4030   -2.2285    0.0000 C   0  0  0  0  0  0  0  0  0  0  0  0
    6.8671   -1.2285    0.0000 C   0  0  0  0  0  0  0  0  0  0  0  0
    6.0010   -0.7285    0.0000 C   0  0  0  0  0  0  0  0  0  0  0  0
    6.8671    0.7715    0.0000 C   0  0  0  0  0  0  0  0  0  0  0  0
    7.7331   -0.7285    0.0000 C   0  0  0  0  0  0  0  0  0  0  0  0
    6.0010    0.2715    0.0000 C   0  0  0  0  0  0  0  0  0  0  0  0
    7.6718    2.3551    0.0000 C   0  0  0  0  0  0  0  0  0  0  0  0
    7.7331    0.2715    0.0000 C   0  0  0  0  0  0  0  0  0  0  0  0
    7.3611    3.3056    0.0000 C   0  0  0  0  0  0  0  0  0  0  0  0
    6.0623    2.3551    0.0000 C   0  0  0  0  0  0  0  0  0  0  0  0
    6.3671    3.3013    0.0000 C   0  0  0  0  0  0  0  0  0  0  0  0
    8.6503    2.1489    0.0000 C   0  0  0  0  0  0  0  0  0  0  0  0
    8.0290    4.0499    0.0000 C   0  0  0  0  0  0  0  0  0  0  0  0
    9.0075    3.8437    0.0000 C   0  0  0  0  0  0  0  0  0  0  0  0
    9.3181    2.8932    0.0000 C   0  0  0  0  0  0  0  0  0  0  0  0
    4.2690   -0.7285    0.0000 C   0  0  0  0  0  0  0  0  0  0  0  0
    4.5981   -4.5385    0.0000 H   0  0  0  0  0  0  0  0  0  0  0  0
    4.2690   -4.3485    0.0000 H   0  0  0  0  0  0  0  0  0  0  0  0
    6.0010   -4.3485    0.0000 H   0  0  0  0  0  0  0  0  0  0  0  0
    4.2690   -2.1085    0.0000 H   0  0  0  0  0  0  0  0  0  0  0  0
    6.5380   -3.0385    0.0000 H   0  0  0  0  0  0  0  0  0  0  0  0
    3.8015   -1.7536    0.0000 H   0  0  0  0  0  0  0  0  0  0  0  0
    3.0044   -1.7536    0.0000 H   0  0  0  0  0  0  0  0  0  0  0  0
    5.6720   -5.5385    0.0000 H   0  0  0  0  0  0  0  0  0  0  0  0
    3.4030   -4.8485    0.0000 H   0  0  0  0  0  0  0  0  0  0  0  0
    7.4040   -3.9185    0.0000 H   0  0  0  0  0  0  0  0  0  0  0  0
    2.0000   -2.4185    0.0000 H   0  0  0  0  0  0  0  0  0  0  0  0
    8.2700   -1.0385    0.0000 H   0  0  0  0  0  0  0  0  0  0  0  0
    5.4641    0.5815    0.0000 H   0  0  0  0  0  0  0  0  0  0  0  0
    8.2700    0.5815    0.0000 H   0  0  0  0  0  0  0  0  0  0  0  0
    5.4730    2.1625    0.0000 H   0  0  0  0  0  0  0  0  0  0  0  0
    6.0009    3.8016    0.0000 H   0  0  0  0  0  0  0  0  0  0  0  0
    8.8429    1.5596    0.0000 H   0  0  0  0  0  0  0  0  0  0  0  0
    7.8364    4.6392    0.0000 H   0  0  0  0  0  0  0  0  0  0  0  0
    9.9248    2.7653    0.0000 H   0  0  0  0  0  0  0  0  0  0  0  0
    4.5790   -0.1916    0.0000 H   0  0  0  0  0  0  0  0  0  0  0  0
    3.7320   -0.4185    0.0000 H   0  0  0  0  0  0  0  0  0  0  0  0
    3.9590   -1.2654    0.0000 H   0  0  0  0  0  0  0  0  0  0  0  0
  1 15  1  0  0  0  0
  1 16  1  0  0  0  0
 16  2  1  6  0  0  0
  2 18  1  0  0  0  0
 12  3  1  1  0  0  0
  3 40  1  0  0  0  0
 13  4  1  6  0  0  0
  4 41  1  0  0  0  0
 14  5  1  1  0  0  0
  5 42  1  0  0  0  0
  6 17  1  0  0  0  0
  6 43  1  0  0  0  0
  7 19  1  0  0  0  0
  7 32  1  0  0  0  0
  8 11  1  0  0  0  0
  9 11  2  0  0  0  0
 10 20  1  0  0  0  0
 10 23  1  0  0  0  0
 10 26  1  0  0  0  0
 11 30  1  0  0  0  0
 12 13  1  0  0  0  0
 12 14  1  0  0  0  0
 12 33  1  0  0  0  0
 13 15  1  0  0  0  0
 13 34  1  0  0  0  0
 14 16  1  0  0  0  0
 14 35  1  0  0  0  0
 15 17  1  1  0  0  0
 15 36  1  0  0  0  0
 16 37  1  0  0  0  0
 17 38  1  0  0  0  0
 17 39  1  0  0  0  0
 18 19  2  0  0  0  0
 18 21  1  0  0  0  0
 19 22  1  0  0  0  0
 20 22  2  0  0  0  0
 20 24  1  0  0  0  0
 21 24  2  0  0  0  0
 21 44  1  0  0  0  0
 22 45  1  0  0  0  0
 23 25  2  0  0  0  0
 23 28  1  0  0  0  0
 24 46  1  0  0  0  0
 25 27  1  0  0  0  0
 25 29  1  0  0  0  0
 26 27  2  0  0  0  0
 26 47  1  0  0  0  0
 27 48  1  0  0  0  0
 28 31  2  0  0  0  0
 28 49  1  0  0  0  0
 29 30  2  0  0  0  0
 29 50  1  0  0  0  0
 30 31  1  0  0  0  0
 31 51  1  0  0  0  0
 32 52  1  0  0  0  0
 32 53  1  0  0  0  0
 32 54  1  0  0  0  0
M  CHG  2   8  -1  11   1
M  END
> <PUBCHEM_COMPOUND_CID>
57523283

> <PUBCHEM_COMPOUND_CANONICALIZED>
1

> <PUBCHEM_CACTVS_COMPLEXITY>
649

> <PUBCHEM_CACTVS_HBOND_ACCEPTOR>
9

> <PUBCHEM_CACTVS_HBOND_DONOR>
4

> <PUBCHEM_CACTVS_ROTATABLE_BOND>
5

> <PUBCHEM_CACTVS_SUBSKEYS>
AAADceB7PAAAAAAAAAAAAAAAAAAAAWAAAAA0YIAAAAAAAFgB9AAAHgAECAAADBzxngc+zvMcVgChAzRnRwCCiCAxIiAo2CA+7JodNuLEsZumeCrnwBnP6Afw8I8OAECAQgACQAAAgQCEAASAAAAAAAAAAA==

> <PUBCHEM_IUPAC_OPENEYE_NAME>
(2R,3S,4S,5S,6R)-2-(hydroxymethyl)-6-[2-methoxy-4-(5-nitroindol-1-yl)phenoxy]tetrahydropyran-3,4,5-triol

> <PUBCHEM_IUPAC_CAS_NAME>
(2R,3S,4S,5S,6R)-2-(hydroxymethyl)-6-[2-methoxy-4-(5-nitro-1-indolyl)phenoxy]oxane-3,4,5-triol

> <PUBCHEM_IUPAC_NAME_MARKUP>
(2<I>R</I>,3<I>S</I>,4<I>S</I>,5<I>S</I>,6<I>R</I>)-2-(hydroxymethyl)-6-[2-methoxy-4-(5-nitroindol-1-yl)phenoxy]oxane-3,4,5-triol

> <PUBCHEM_IUPAC_NAME>
(2R,3S,4S,5S,6R)-2-(hydroxymethyl)-6-[2-methoxy-4-(5-nitroindol-1-yl)phenoxy]oxane-3,4,5-triol

> <PUBCHEM_IUPAC_SYSTEMATIC_NAME>
(2R,3S,4S,5S,6R)-2-(hydroxymethyl)-6-[2-methoxy-4-(5-nitroindol-1-yl)phenoxy]oxane-3,4,5-triol

> <PUBCHEM_IUPAC_TRADITIONAL_NAME>
(2R,3S,4S,5S,6R)-2-[2-methoxy-4-(5-nitroindol-1-yl)phenoxy]-6-methylol-tetrahydropyran-3,4,5-triol

> <PUBCHEM_IUPAC_INCHI>
InChI=1S/C21H22N2O9/c1-30-16-9-12(22-7-6-11-8-13(23(28)29)2-4-14(11)22)3-5-15(16)31-21-20(27)19(26)18(25)17(10-24)32-21/h2-9,17-21,24-27H,10H2,1H3/t17-,18-,19+,20+,21+/m1/s1

> <PUBCHEM_IUPAC_INCHIKEY>
FISIQEFCCCFHDL-MJCUULBUSA-N

> <PUBCHEM_XLOGP3_AA>
1.3

> <PUBCHEM_EXACT_MASS>
446.13253028

> <PUBCHEM_MOLECULAR_FORMULA>
C21H22N2O9

> <PUBCHEM_MOLECULAR_WEIGHT>
446.4

> <PUBCHEM_OPENEYE_CAN_SMILES>
COC1=C(C=CC(=C1)N2C=CC3=C2C=CC(=C3)[N+](=O)[O-])OC4C(C(C(C(O4)CO)O)O)O

> <PUBCHEM_OPENEYE_ISO_SMILES>
COC1=C(C=CC(=C1)N2C=CC3=C2C=CC(=C3)[N+](=O)[O-])O[C@@H]4[C@H]([C@H]([C@@H]([C@H](O4)CO)O)O)O

> <PUBCHEM_CACTVS_TPSA>
159

> <PUBCHEM_MONOISOTOPIC_WEIGHT>
446.13253028

> <PUBCHEM_TOTAL_CHARGE>
0

> <PUBCHEM_HEAVY_ATOM_COUNT>
32

> <PUBCHEM_ATOM_DEF_STEREO_COUNT>
5

> <PUBCHEM_ATOM_UDEF_STEREO_COUNT>
0

> <PUBCHEM_BOND_DEF_STEREO_COUNT>
0

> <PUBCHEM_BOND_UDEF_STEREO_COUNT>
0

> <PUBCHEM_ISOTOPIC_ATOM_COUNT>
0

> <PUBCHEM_COMPONENT_COUNT>
1

> <PUBCHEM_CACTVS_TAUTO_COUNT>
-1

> <PUBCHEM_COORDINATE_TYPE>
1
5
255

> <PUBCHEM_BONDANNOTATIONS>
10  23  8
10  26  8
15  17  5
18  19  8
18  21  8
19  22  8
16  2  6
20  22  8
20  24  8
21  24  8
23  25  8
23  28  8
25  27  8
25  29  8
26  27  8
28  31  8
29  30  8
12  3  5
30  31  8
13  4  6
14  5  5

$$$$
