 
  -OEChem-10192103272D

 35 37  0     0  0  0  0  0  0999 V2000
    6.0682   -1.0000    0.0000 O   0  0  0  0  0  0  0  0  0  0  0  0
    6.0682    2.0000    0.0000 O   0  0  0  0  0  0  0  0  0  0  0  0
    2.5381   -1.0241    0.0000 O   0  0  0  0  0  0  0  0  0  0  0  0
    8.6663   -2.5000    0.0000 O   0  0  0  0  0  0  0  0  0  0  0  0
   10.3984    2.5000    0.0000 O   0  0  0  0  0  0  0  0  0  0  0  0
    6.9343   -2.5000    0.0000 O   0  0  0  0  0  0  0  0  0  0  0  0
    6.9343    0.5000    0.0000 C   0  0  0  0  0  0  0  0  0  0  0  0
    6.9343   -0.5000    0.0000 C   0  0  0  0  0  0  0  0  0  0  0  0
    5.2022    0.5000    0.0000 C   0  0  0  0  0  0  0  0  0  0  0  0
    6.0682    1.0000    0.0000 C   0  0  0  0  0  0  0  0  0  0  0  0
    5.2022   -0.5000    0.0000 C   0  0  0  0  0  0  0  0  0  0  0  0
    7.8003    1.0000    0.0000 C   0  0  0  0  0  0  0  0  0  0  0  0
    7.8003   -1.0000    0.0000 C   0  0  0  0  0  0  0  0  0  0  0  0
    4.3083    1.0347    0.0000 C   0  0  0  0  0  0  0  0  0  0  0  0
    4.3083   -1.0347    0.0000 C   0  0  0  0  0  0  0  0  0  0  0  0
    7.8003    2.0000    0.0000 C   0  0  0  0  0  0  0  0  0  0  0  0
    8.6663    0.5000    0.0000 C   0  0  0  0  0  0  0  0  0  0  0  0
    3.4022   -0.5208    0.0000 C   0  0  0  0  0  0  0  0  0  0  0  0
    3.4022    0.5208    0.0000 C   0  0  0  0  0  0  0  0  0  0  0  0
    8.6663    2.5000    0.0000 C   0  0  0  0  0  0  0  0  0  0  0  0
    9.5323    1.0000    0.0000 C   0  0  0  0  0  0  0  0  0  0  0  0
    7.8003   -2.0000    0.0000 C   0  0  0  0  0  0  0  0  0  0  0  0
    9.5323    2.0000    0.0000 C   0  0  0  0  0  0  0  0  0  0  0  0
    8.4109   -1.1077    0.0000 H   0  0  0  0  0  0  0  0  0  0  0  0
    8.0124   -0.4174    0.0000 H   0  0  0  0  0  0  0  0  0  0  0  0
    4.3154    1.6546    0.0000 H   0  0  0  0  0  0  0  0  0  0  0  0
    4.3154   -1.6546    0.0000 H   0  0  0  0  0  0  0  0  0  0  0  0
    7.2634    2.3100    0.0000 H   0  0  0  0  0  0  0  0  0  0  0  0
    8.6663   -0.1200    0.0000 H   0  0  0  0  0  0  0  0  0  0  0  0
    2.8665    0.8329    0.0000 H   0  0  0  0  0  0  0  0  0  0  0  0
    8.6663    3.1200    0.0000 H   0  0  0  0  0  0  0  0  0  0  0  0
   10.0693    0.6900    0.0000 H   0  0  0  0  0  0  0  0  0  0  0  0
    2.0000   -0.7162    0.0000 H   0  0  0  0  0  0  0  0  0  0  0  0
    8.6663   -3.1200    0.0000 H   0  0  0  0  0  0  0  0  0  0  0  0
   10.3984    3.1200    0.0000 H   0  0  0  0  0  0  0  0  0  0  0  0
  1  8  1  0  0  0  0
  1 11  1  0  0  0  0
  2 10  2  0  0  0  0
  3 18  1  0  0  0  0
  3 33  1  0  0  0  0
  4 22  1  0  0  0  0
  4 34  1  0  0  0  0
  5 23  1  0  0  0  0
  5 35  1  0  0  0  0
  6 22  2  0  0  0  0
  7  8  2  0  0  0  0
  7 10  1  0  0  0  0
  7 12  1  0  0  0  0
  8 13  1  0  0  0  0
  9 10  1  0  0  0  0
  9 11  2  0  0  0  0
  9 14  1  0  0  0  0
 11 15  1  0  0  0  0
 12 16  2  0  0  0  0
 12 17  1  0  0  0  0
 13 22  1  0  0  0  0
 13 24  1  0  0  0  0
 13 25  1  0  0  0  0
 14 19  2  0  0  0  0
 14 26  1  0  0  0  0
 15 18  2  0  0  0  0
 15 27  1  0  0  0  0
 16 20  1  0  0  0  0
 16 28  1  0  0  0  0
 17 21  2  0  0  0  0
 17 29  1  0  0  0  0
 18 19  1  0  0  0  0
 19 30  1  0  0  0  0
 20 23  2  0  0  0  0
 20 31  1  0  0  0  0
 21 23  1  0  0  0  0
 21 32  1  0  0  0  0
M  END
> <PUBCHEM_COMPOUND_CID>
68636046

> <PUBCHEM_COMPOUND_CANONICALIZED>
1

> <PUBCHEM_CACTVS_COMPLEXITY>
517

> <PUBCHEM_CACTVS_HBOND_ACCEPTOR>
6

> <PUBCHEM_CACTVS_HBOND_DONOR>
3

> <PUBCHEM_CACTVS_ROTATABLE_BOND>
3

> <PUBCHEM_CACTVS_SUBSKEYS>
AAADccB4OAAAAAAAAAAAAAAAAAAAAAAAAAAwYIAAAAAAAACBQAAAGgAACAAADASAmAAwDoAABgCIAqDSCAACCAAkIAAIiAEGCMgMJzaGNRqCeWCl4BUIuYeI7PzOIAAACAAIAABAAAAQABAAAAAAAAAAAA==

> <PUBCHEM_IUPAC_OPENEYE_NAME>
2-[7-hydroxy-3-(4-hydroxyphenyl)-4-oxo-chromen-2-yl]acetic acid

> <PUBCHEM_IUPAC_CAS_NAME>
2-[7-hydroxy-3-(4-hydroxyphenyl)-4-oxo-1-benzopyran-2-yl]acetic acid

> <PUBCHEM_IUPAC_NAME_MARKUP>
2-[7-hydroxy-3-(4-hydroxyphenyl)-4-oxochromen-2-yl]acetic acid

> <PUBCHEM_IUPAC_NAME>
2-[7-hydroxy-3-(4-hydroxyphenyl)-4-oxochromen-2-yl]acetic acid

> <PUBCHEM_IUPAC_SYSTEMATIC_NAME>
2-[3-(4-hydroxyphenyl)-7-oxidanyl-4-oxidanylidene-chromen-2-yl]ethanoic acid

> <PUBCHEM_IUPAC_TRADITIONAL_NAME>
2-[7-hydroxy-3-(4-hydroxyphenyl)-4-keto-chromen-2-yl]acetic acid

> <PUBCHEM_IUPAC_INCHI>
InChI=1S/C17H12O6/c18-10-3-1-9(2-4-10)16-14(8-15(20)21)23-13-7-11(19)5-6-12(13)17(16)22/h1-7,18-19H,8H2,(H,20,21)

> <PUBCHEM_IUPAC_INCHIKEY>
ROSVHKBDJFHFBE-UHFFFAOYSA-N

> <PUBCHEM_XLOGP3_AA>
1.9

> <PUBCHEM_EXACT_MASS>
312.06338810

> <PUBCHEM_MOLECULAR_FORMULA>
C17H12O6

> <PUBCHEM_MOLECULAR_WEIGHT>
312.27

> <PUBCHEM_OPENEYE_CAN_SMILES>
C1=CC(=CC=C1C2=C(OC3=C(C2=O)C=CC(=C3)O)CC(=O)O)O

> <PUBCHEM_OPENEYE_ISO_SMILES>
C1=CC(=CC=C1C2=C(OC3=C(C2=O)C=CC(=C3)O)CC(=O)O)O

> <PUBCHEM_CACTVS_TPSA>
104

> <PUBCHEM_MONOISOTOPIC_WEIGHT>
312.06338810

> <PUBCHEM_TOTAL_CHARGE>
0

> <PUBCHEM_HEAVY_ATOM_COUNT>
23

> <PUBCHEM_ATOM_DEF_STEREO_COUNT>
0

> <PUBCHEM_ATOM_UDEF_STEREO_COUNT>
0

> <PUBCHEM_BOND_DEF_STEREO_COUNT>
0

> <PUBCHEM_BOND_UDEF_STEREO_COUNT>
0

> <PUBCHEM_ISOTOPIC_ATOM_COUNT>
0

> <PUBCHEM_COMPONENT_COUNT>
1

> <PUBCHEM_CACTVS_TAUTO_COUNT>
-1

> <PUBCHEM_COORDINATE_TYPE>
1
5
255

> <PUBCHEM_BONDANNOTATIONS>
1  11  8
1  8  8
11  15  8
12  16  8
12  17  8
14  19  8
15  18  8
16  20  8
17  21  8
18  19  8
20  23  8
21  23  8
7  10  8
7  8  8
9  10  8
9  11  8
9  14  8

$$$$
