 
  -OEChem-10192104042D

 16 15  0     0  0  0  0  0  0999 V2000
    8.0622    0.2500    0.0000 S   0  0  0  0  0  0  0  0  0  0  0  0
    2.8660    0.2500    0.0000 S   0  0  0  0  0  0  0  0  0  0  0  0
    5.4641   -1.2500    0.0000 O   0  0  0  0  0  0  0  0  0  0  0  0
    8.9282   -0.2500    0.0000 O   0  0  0  0  0  0  0  0  0  0  0  0
    8.0622    1.2500    0.0000 O   0  0  0  0  0  0  0  0  0  0  0  0
    2.0000   -0.2500    0.0000 O   0  0  0  0  0  0  0  0  0  0  0  0
    2.8660    1.2500    0.0000 O   0  0  0  0  0  0  0  0  0  0  0  0
    7.1962   -0.2500    0.0000 N   0  0  0  0  0  0  0  0  0  0  0  0
    3.7320   -0.2500    0.0000 N   0  0  0  0  0  0  0  0  0  0  0  0
    6.3301    0.2500    0.0000 C   0  0  0  0  0  0  0  0  0  0  0  0
    4.5981    0.2500    0.0000 C   0  0  0  0  0  0  0  0  0  0  0  0
    5.4641   -0.2500    0.0000 C   0  0  0  0  0  0  0  0  0  0  0  0
    6.7287    0.7249    0.0000 H   0  0  0  0  0  0  0  0  0  0  0  0
    5.9316    0.7249    0.0000 H   0  0  0  0  0  0  0  0  0  0  0  0
    4.9966    0.7249    0.0000 H   0  0  0  0  0  0  0  0  0  0  0  0
    4.1996    0.7249    0.0000 H   0  0  0  0  0  0  0  0  0  0  0  0
  1  4  2  0  0  0  0
  1  5  2  0  0  0  0
  1  8  2  0  0  0  0
  2  6  2  0  0  0  0
  2  7  2  0  0  0  0
  2  9  2  0  0  0  0
  3 12  2  0  0  0  0
  8 10  1  0  0  0  0
  9 11  1  0  0  0  0
 10 12  1  0  0  0  0
 10 13  1  0  0  0  0
 10 14  1  0  0  0  0
 11 12  1  0  0  0  0
 11 15  1  0  0  0  0
 11 16  1  0  0  0  0
M  END
> <PUBCHEM_COMPOUND_CID>
87696716

> <PUBCHEM_COMPOUND_CANONICALIZED>
1

> <PUBCHEM_CACTVS_COMPLEXITY>
349

> <PUBCHEM_CACTVS_HBOND_ACCEPTOR>
7

> <PUBCHEM_CACTVS_HBOND_DONOR>
0

> <PUBCHEM_CACTVS_ROTATABLE_BOND>
4

> <PUBCHEM_CACTVS_SUBSKEYS>
AAADcYBDOABgAAAAAAAAAAAAAAAAAAAAAAAAAAAAAAAAAAAAAAAAHgAAQAAACATBgAQAAAAAAAAIAIAQADAAAAAAAAAAAACAAAAAAAAAQAAAAAAAAAAAAAAAAAAAAAAAAAAAAAAAAAAAAAAAAAAAAAAAAA==

> <PUBCHEM_IUPAC_OPENEYE_NAME>
1,3-bis(sulfonylamino)propan-2-one

> <PUBCHEM_IUPAC_CAS_NAME>
1,3-bis(sulfonylamino)-2-propanone

> <PUBCHEM_IUPAC_NAME_MARKUP>
1,3-bis(sulfonylamino)propan-2-one

> <PUBCHEM_IUPAC_NAME>
1,3-bis(sulfonylamino)propan-2-one

> <PUBCHEM_IUPAC_SYSTEMATIC_NAME>
1,3-bis(sulfonylamino)propan-2-one

> <PUBCHEM_IUPAC_TRADITIONAL_NAME>
1,3-bis(sulfonylamino)acetone

> <PUBCHEM_IUPAC_INCHI>
InChI=1S/C3H4N2O5S2/c6-3(1-4-11(7)8)2-5-12(9)10/h1-2H2

> <PUBCHEM_IUPAC_INCHIKEY>
CRLJCUXRUBOTHQ-UHFFFAOYSA-N

> <PUBCHEM_XLOGP3_AA>
0.3

> <PUBCHEM_EXACT_MASS>
211.95616358

> <PUBCHEM_MOLECULAR_FORMULA>
C3H4N2O5S2

> <PUBCHEM_MOLECULAR_WEIGHT>
212.2

> <PUBCHEM_OPENEYE_CAN_SMILES>
C(C(=O)CN=S(=O)=O)N=S(=O)=O

> <PUBCHEM_OPENEYE_ISO_SMILES>
C(C(=O)CN=S(=O)=O)N=S(=O)=O

> <PUBCHEM_CACTVS_TPSA>
112

> <PUBCHEM_MONOISOTOPIC_WEIGHT>
211.95616358

> <PUBCHEM_TOTAL_CHARGE>
0

> <PUBCHEM_HEAVY_ATOM_COUNT>
12

> <PUBCHEM_ATOM_DEF_STEREO_COUNT>
0

> <PUBCHEM_ATOM_UDEF_STEREO_COUNT>
0

> <PUBCHEM_BOND_DEF_STEREO_COUNT>
0

> <PUBCHEM_BOND_UDEF_STEREO_COUNT>
0

> <PUBCHEM_ISOTOPIC_ATOM_COUNT>
0

> <PUBCHEM_COMPONENT_COUNT>
1

> <PUBCHEM_CACTVS_TAUTO_COUNT>
-1

> <PUBCHEM_COORDINATE_TYPE>
1
5
255

$$$$
