 
  -OEChem-10192103512D

 47 48  0     0  0  0  0  0  0999 V2000
    5.4641    0.1550    0.0000 O   0  0  0  0  0  0  0  0  0  0  0  0
    3.7320   -2.8450    0.0000 O   0  0  0  0  0  0  0  0  0  0  0  0
    7.1962    3.1550    0.0000 O   0  0  0  0  0  0  0  0  0  0  0  0
    5.4641   -5.8450    0.0000 O   0  0  0  0  0  0  0  0  0  0  0  0
    8.9282    6.1550    0.0000 O   0  0  0  0  0  0  0  0  0  0  0  0
    2.0000   -5.8450    0.0000 O   0  0  0  0  0  0  0  0  0  0  0  0
   10.6603    3.1550    0.0000 O   0  0  0  0  0  0  0  0  0  0  0  0
    4.5981   -1.3450    0.0000 C   0  0  0  0  0  0  0  0  0  0  0  0
    6.3301    1.6550    0.0000 C   0  0  0  0  0  0  0  0  0  0  0  0
    5.4641   -0.8450    0.0000 C   0  0  0  0  0  0  0  0  0  0  0  0
    6.3301    0.6550    0.0000 C   0  0  0  0  0  0  0  0  0  0  0  0
    4.5981   -2.3450    0.0000 C   0  0  0  0  0  0  0  0  0  0  0  0
    7.1962    2.1550    0.0000 C   0  0  0  0  0  0  0  0  0  0  0  0
    3.7320   -3.8450    0.0000 C   0  0  0  0  0  0  0  0  0  0  0  0
    8.0622    3.6550    0.0000 C   0  0  0  0  0  0  0  0  0  0  0  0
    2.8660   -4.3450    0.0000 C   0  0  0  0  0  0  0  0  0  0  0  0
    8.9282    3.1550    0.0000 C   0  0  0  0  0  0  0  0  0  0  0  0
    4.5981   -4.3450    0.0000 C   0  0  0  0  0  0  0  0  0  0  0  0
    8.0622    4.6550    0.0000 C   0  0  0  0  0  0  0  0  0  0  0  0
    4.5981   -5.3450    0.0000 C   0  0  0  0  0  0  0  0  0  0  0  0
    8.9282    5.1550    0.0000 C   0  0  0  0  0  0  0  0  0  0  0  0
    2.8660   -5.3450    0.0000 C   0  0  0  0  0  0  0  0  0  0  0  0
    9.7942    3.6550    0.0000 C   0  0  0  0  0  0  0  0  0  0  0  0
    3.7320   -5.8450    0.0000 C   0  0  0  0  0  0  0  0  0  0  0  0
    9.7942    4.6550    0.0000 C   0  0  0  0  0  0  0  0  0  0  0  0
    4.3860   -0.7624    0.0000 H   0  0  0  0  0  0  0  0  0  0  0  0
    3.9875   -1.4527    0.0000 H   0  0  0  0  0  0  0  0  0  0  0  0
    6.1181    2.2376    0.0000 H   0  0  0  0  0  0  0  0  0  0  0  0
    5.7196    1.5473    0.0000 H   0  0  0  0  0  0  0  0  0  0  0  0
    5.6762   -1.4276    0.0000 H   0  0  0  0  0  0  0  0  0  0  0  0
    6.0747   -0.7373    0.0000 H   0  0  0  0  0  0  0  0  0  0  0  0
    6.5422    0.0724    0.0000 H   0  0  0  0  0  0  0  0  0  0  0  0
    6.9407    0.7627    0.0000 H   0  0  0  0  0  0  0  0  0  0  0  0
    4.8101   -2.9276    0.0000 H   0  0  0  0  0  0  0  0  0  0  0  0
    5.2087   -2.2373    0.0000 H   0  0  0  0  0  0  0  0  0  0  0  0
    7.4082    1.5724    0.0000 H   0  0  0  0  0  0  0  0  0  0  0  0
    7.8067    2.2627    0.0000 H   0  0  0  0  0  0  0  0  0  0  0  0
    2.3291   -4.0350    0.0000 H   0  0  0  0  0  0  0  0  0  0  0  0
    8.9282    2.5350    0.0000 H   0  0  0  0  0  0  0  0  0  0  0  0
    5.1350   -4.0350    0.0000 H   0  0  0  0  0  0  0  0  0  0  0  0
    7.5252    4.9650    0.0000 H   0  0  0  0  0  0  0  0  0  0  0  0
    3.7320   -6.4650    0.0000 H   0  0  0  0  0  0  0  0  0  0  0  0
   10.3312    4.9650    0.0000 H   0  0  0  0  0  0  0  0  0  0  0  0
    5.4641   -6.4650    0.0000 H   0  0  0  0  0  0  0  0  0  0  0  0
    9.4651    6.4650    0.0000 H   0  0  0  0  0  0  0  0  0  0  0  0
    2.0000   -6.4650    0.0000 H   0  0  0  0  0  0  0  0  0  0  0  0
   11.1972    3.4650    0.0000 H   0  0  0  0  0  0  0  0  0  0  0  0
  1 10  1  0  0  0  0
  1 11  1  0  0  0  0
  2 12  1  0  0  0  0
  2 14  1  0  0  0  0
  3 13  1  0  0  0  0
  3 15  1  0  0  0  0
  4 20  1  0  0  0  0
  4 44  1  0  0  0  0
  5 21  1  0  0  0  0
  5 45  1  0  0  0  0
  6 22  1  0  0  0  0
  6 46  1  0  0  0  0
  7 23  1  0  0  0  0
  7 47  1  0  0  0  0
  8 10  1  0  0  0  0
  8 12  1  0  0  0  0
  8 26  1  0  0  0  0
  8 27  1  0  0  0  0
  9 11  1  0  0  0  0
  9 13  1  0  0  0  0
  9 28  1  0  0  0  0
  9 29  1  0  0  0  0
 10 30  1  0  0  0  0
 10 31  1  0  0  0  0
 11 32  1  0  0  0  0
 11 33  1  0  0  0  0
 12 34  1  0  0  0  0
 12 35  1  0  0  0  0
 13 36  1  0  0  0  0
 13 37  1  0  0  0  0
 14 16  2  0  0  0  0
 14 18  1  0  0  0  0
 15 17  2  0  0  0  0
 15 19  1  0  0  0  0
 16 22  1  0  0  0  0
 16 38  1  0  0  0  0
 17 23  1  0  0  0  0
 17 39  1  0  0  0  0
 18 20  2  0  0  0  0
 18 40  1  0  0  0  0
 19 21  2  0  0  0  0
 19 41  1  0  0  0  0
 20 24  1  0  0  0  0
 21 25  1  0  0  0  0
 22 24  2  0  0  0  0
 23 25  2  0  0  0  0
 24 42  1  0  0  0  0
 25 43  1  0  0  0  0
M  END
> <PUBCHEM_COMPOUND_CID>
129652288

> <PUBCHEM_COMPOUND_CANONICALIZED>
1

> <PUBCHEM_CACTVS_COMPLEXITY>
302

> <PUBCHEM_CACTVS_HBOND_ACCEPTOR>
7

> <PUBCHEM_CACTVS_HBOND_DONOR>
4

> <PUBCHEM_CACTVS_ROTATABLE_BOND>
10

> <PUBCHEM_CACTVS_SUBSKEYS>
AAADceB4OAAAAAAAAAAAAAAAAAAAAAAAAAAwYAAAAAAAAAABQAAAGgAACAAACASgkAIwBoAABgCAACBCAAACCAAgIAAAiAAGCIgMJyKGMRqCeCClwBUIuAeAYAwAAAAACAAAAAAAAAAQAAAAAAAAAAAAAA==

> <PUBCHEM_IUPAC_OPENEYE_NAME>
5-[3-[3-(3,5-dihydroxyphenoxy)propoxy]propoxy]benzene-1,3-diol

> <PUBCHEM_IUPAC_CAS_NAME>
5-[3-[3-(3,5-dihydroxyphenoxy)propoxy]propoxy]benzene-1,3-diol

> <PUBCHEM_IUPAC_NAME_MARKUP>
5-[3-[3-(3,5-dihydroxyphenoxy)propoxy]propoxy]benzene-1,3-diol

> <PUBCHEM_IUPAC_NAME>
5-[3-[3-(3,5-dihydroxyphenoxy)propoxy]propoxy]benzene-1,3-diol

> <PUBCHEM_IUPAC_SYSTEMATIC_NAME>
5-[3-[3-[3,5-bis(oxidanyl)phenoxy]propoxy]propoxy]benzene-1,3-diol

> <PUBCHEM_IUPAC_TRADITIONAL_NAME>
5-[3-[3-(3,5-dihydroxyphenoxy)propoxy]propoxy]resorcinol

> <PUBCHEM_IUPAC_INCHI>
InChI=1S/C18H22O7/c19-13-7-14(20)10-17(9-13)24-5-1-3-23-4-2-6-25-18-11-15(21)8-16(22)12-18/h7-12,19-22H,1-6H2

> <PUBCHEM_IUPAC_INCHIKEY>
XDWIYCHITCCSMT-UHFFFAOYSA-N

> <PUBCHEM_XLOGP3_AA>
2.7

> <PUBCHEM_EXACT_MASS>
350.13655304

> <PUBCHEM_MOLECULAR_FORMULA>
C18H22O7

> <PUBCHEM_MOLECULAR_WEIGHT>
350.4

> <PUBCHEM_OPENEYE_CAN_SMILES>
C1=C(C=C(C=C1O)OCCCOCCCOC2=CC(=CC(=C2)O)O)O

> <PUBCHEM_OPENEYE_ISO_SMILES>
C1=C(C=C(C=C1O)OCCCOCCCOC2=CC(=CC(=C2)O)O)O

> <PUBCHEM_CACTVS_TPSA>
109

> <PUBCHEM_MONOISOTOPIC_WEIGHT>
350.13655304

> <PUBCHEM_TOTAL_CHARGE>
0

> <PUBCHEM_HEAVY_ATOM_COUNT>
25

> <PUBCHEM_ATOM_DEF_STEREO_COUNT>
0

> <PUBCHEM_ATOM_UDEF_STEREO_COUNT>
0

> <PUBCHEM_BOND_DEF_STEREO_COUNT>
0

> <PUBCHEM_BOND_UDEF_STEREO_COUNT>
0

> <PUBCHEM_ISOTOPIC_ATOM_COUNT>
0

> <PUBCHEM_COMPONENT_COUNT>
1

> <PUBCHEM_CACTVS_TAUTO_COUNT>
-1

> <PUBCHEM_COORDINATE_TYPE>
1
5
255

> <PUBCHEM_BONDANNOTATIONS>
14  16  8
14  18  8
15  17  8
15  19  8
16  22  8
17  23  8
18  20  8
19  21  8
20  24  8
21  25  8
22  24  8
23  25  8

$$$$
