 
  -OEChem-10192104412D

 64 64  0     1  0  0  0  0  0999 V2000
    7.1962   -1.4050    0.0000 S   0  0  0  0  0  0  0  0  0  0  0  0
    5.4641   -1.4050    0.0000 O   0  0  0  0  0  0  0  0  0  0  0  0
    5.4641   -4.4050    0.0000 O   0  0  0  0  0  0  0  0  0  0  0  0
    3.7320   -3.4050    0.0000 O   0  0  0  0  0  0  0  0  0  0  0  0
    7.1962   -3.4050    0.0000 O   0  0  0  0  0  0  0  0  0  0  0  0
    3.7320   -0.4050    0.0000 O   0  0  0  0  0  0  0  0  0  0  0  0
    8.0622    1.0950    0.0000 O   0  0  0  0  0  0  0  0  0  0  0  0
    3.7320   -4.4050    0.0000 O   0  0  0  0  0  0  0  0  0  0  0  0
    2.8660   -1.9050    0.0000 O   0  0  0  0  0  0  0  0  0  0  0  0
    8.0622   -1.9050    0.0000 O   0  0  0  0  0  0  0  0  0  0  0  0
    2.0000   -0.4050    0.0000 O   0  0  0  0  0  0  0  0  0  0  0  0
    9.7942    3.0950    0.0000 O   0  0  0  0  0  0  0  0  0  0  0  0
   10.6603    5.5950    0.0000 O   0  0  0  0  0  0  0  0  0  0  0  0
   11.5263    4.0950    0.0000 O   0  0  0  0  0  0  0  0  0  0  0  0
    5.4641   -3.4050    0.0000 C   0  0  1  0  0  0  0  0  0  0  0  0
    4.5981   -2.9050    0.0000 C   0  0  1  0  0  0  0  0  0  0  0  0
    6.3301   -2.9050    0.0000 C   0  0  1  0  0  0  0  0  0  0  0  0
    4.5981   -1.9050    0.0000 C   0  0  1  0  0  0  0  0  0  0  0  0
    6.3301   -1.9050    0.0000 C   0  0  1  0  0  0  0  0  0  0  0  0
    3.7320   -1.4050    0.0000 C   0  0  0  0  0  0  0  0  0  0  0  0
    7.1962   -0.4050    0.0000 C   0  0  0  0  0  0  0  0  0  0  0  0
    4.5981   -4.9050    0.0000 C   0  0  0  0  0  0  0  0  0  0  0  0
    2.8660   -2.9050    0.0000 C   0  0  0  0  0  0  0  0  0  0  0  0
    8.0622   -2.9050    0.0000 C   0  0  0  0  0  0  0  0  0  0  0  0
    8.0622    0.0950    0.0000 C   0  0  0  0  0  0  0  0  0  0  0  0
    4.5981   -5.9050    0.0000 C   0  0  0  0  0  0  0  0  0  0  0  0
    2.0000   -3.4050    0.0000 C   0  0  0  0  0  0  0  0  0  0  0  0
    2.8660    0.0950    0.0000 C   0  0  0  0  0  0  0  0  0  0  0  0
    8.9282   -3.4050    0.0000 C   0  0  0  0  0  0  0  0  0  0  0  0
    2.8660    1.0950    0.0000 C   0  0  0  0  0  0  0  0  0  0  0  0
    8.9282    1.5950    0.0000 C   0  0  0  0  0  0  0  0  0  0  0  0
    8.9282    2.5950    0.0000 C   0  0  0  0  0  0  0  0  0  0  0  0
    9.7942    4.0950    0.0000 C   0  0  0  0  0  0  0  0  0  0  0  0
   10.6603    4.5950    0.0000 C   0  0  0  0  0  0  0  0  0  0  0  0
    4.9272   -3.7150    0.0000 H   0  0  0  0  0  0  0  0  0  0  0  0
    4.5981   -3.5250    0.0000 H   0  0  0  0  0  0  0  0  0  0  0  0
    6.3301   -3.5250    0.0000 H   0  0  0  0  0  0  0  0  0  0  0  0
    4.5981   -1.2850    0.0000 H   0  0  0  0  0  0  0  0  0  0  0  0
    6.8671   -2.2150    0.0000 H   0  0  0  0  0  0  0  0  0  0  0  0
    3.1215   -1.2973    0.0000 H   0  0  0  0  0  0  0  0  0  0  0  0
    3.5200   -1.9876    0.0000 H   0  0  0  0  0  0  0  0  0  0  0  0
    6.9841    0.1776    0.0000 H   0  0  0  0  0  0  0  0  0  0  0  0
    6.5856   -0.5127    0.0000 H   0  0  0  0  0  0  0  0  0  0  0  0
    8.2742   -0.4876    0.0000 H   0  0  0  0  0  0  0  0  0  0  0  0
    8.6728    0.2027    0.0000 H   0  0  0  0  0  0  0  0  0  0  0  0
    3.9781   -5.9050    0.0000 H   0  0  0  0  0  0  0  0  0  0  0  0
    4.5981   -6.5250    0.0000 H   0  0  0  0  0  0  0  0  0  0  0  0
    5.2181   -5.9050    0.0000 H   0  0  0  0  0  0  0  0  0  0  0  0
    1.6900   -2.8681    0.0000 H   0  0  0  0  0  0  0  0  0  0  0  0
    1.4631   -3.7150    0.0000 H   0  0  0  0  0  0  0  0  0  0  0  0
    2.3100   -3.9419    0.0000 H   0  0  0  0  0  0  0  0  0  0  0  0
    8.6182   -3.9419    0.0000 H   0  0  0  0  0  0  0  0  0  0  0  0
    9.4651   -3.7150    0.0000 H   0  0  0  0  0  0  0  0  0  0  0  0
    9.2382   -2.8681    0.0000 H   0  0  0  0  0  0  0  0  0  0  0  0
    3.4860    1.0950    0.0000 H   0  0  0  0  0  0  0  0  0  0  0  0
    2.8660    1.7150    0.0000 H   0  0  0  0  0  0  0  0  0  0  0  0
    2.2460    1.0950    0.0000 H   0  0  0  0  0  0  0  0  0  0  0  0
    9.1403    1.0124    0.0000 H   0  0  0  0  0  0  0  0  0  0  0  0
    9.5388    1.7027    0.0000 H   0  0  0  0  0  0  0  0  0  0  0  0
    8.7162    3.1776    0.0000 H   0  0  0  0  0  0  0  0  0  0  0  0
    8.3176    2.4873    0.0000 H   0  0  0  0  0  0  0  0  0  0  0  0
    9.5822    4.6776    0.0000 H   0  0  0  0  0  0  0  0  0  0  0  0
    9.1836    3.9873    0.0000 H   0  0  0  0  0  0  0  0  0  0  0  0
   11.1972    5.9050    0.0000 H   0  0  0  0  0  0  0  0  0  0  0  0
 19  1  1  6  0  0  0
  1 21  1  0  0  0  0
  2 18  1  0  0  0  0
  2 19  1  0  0  0  0
 15  3  1  1  0  0  0
  3 22  1  0  0  0  0
 16  4  1  6  0  0  0
  4 23  1  0  0  0  0
 17  5  1  1  0  0  0
  5 24  1  0  0  0  0
  6 20  1  0  0  0  0
  6 28  1  0  0  0  0
  7 25  1  0  0  0  0
  7 31  1  0  0  0  0
  8 22  2  0  0  0  0
  9 23  2  0  0  0  0
 10 24  2  0  0  0  0
 11 28  2  0  0  0  0
 12 32  1  0  0  0  0
 12 33  1  0  0  0  0
 13 34  1  0  0  0  0
 13 64  1  0  0  0  0
 14 34  2  0  0  0  0
 15 16  1  0  0  0  0
 15 17  1  0  0  0  0
 15 35  1  0  0  0  0
 16 18  1  0  0  0  0
 16 36  1  0  0  0  0
 17 19  1  0  0  0  0
 17 37  1  0  0  0  0
 18 20  1  1  0  0  0
 18 38  1  0  0  0  0
 19 39  1  0  0  0  0
 20 40  1  0  0  0  0
 20 41  1  0  0  0  0
 21 25  1  0  0  0  0
 21 42  1  0  0  0  0
 21 43  1  0  0  0  0
 22 26  1  0  0  0  0
 23 27  1  0  0  0  0
 24 29  1  0  0  0  0
 25 44  1  0  0  0  0
 25 45  1  0  0  0  0
 26 46  1  0  0  0  0
 26 47  1  0  0  0  0
 26 48  1  0  0  0  0
 27 49  1  0  0  0  0
 27 50  1  0  0  0  0
 27 51  1  0  0  0  0
 28 30  1  0  0  0  0
 29 52  1  0  0  0  0
 29 53  1  0  0  0  0
 29 54  1  0  0  0  0
 30 55  1  0  0  0  0
 30 56  1  0  0  0  0
 30 57  1  0  0  0  0
 31 32  1  0  0  0  0
 31 58  1  0  0  0  0
 31 59  1  0  0  0  0
 32 60  1  0  0  0  0
 32 61  1  0  0  0  0
 33 34  1  0  0  0  0
 33 62  1  0  0  0  0
 33 63  1  0  0  0  0
M  END
> <PUBCHEM_COMPOUND_CID>
101340238

> <PUBCHEM_COMPOUND_CANONICALIZED>
1

> <PUBCHEM_CACTVS_COMPLEXITY>
713

> <PUBCHEM_CACTVS_HBOND_ACCEPTOR>
14

> <PUBCHEM_CACTVS_HBOND_DONOR>
1

> <PUBCHEM_CACTVS_ROTATABLE_BOND>
18

> <PUBCHEM_CACTVS_SUBSKEYS>
AAADceB4PABAAAAAAAAAAAAAAAAAAAAAAAAkAAAAAAAAAAAAAAAAGgQACAAACBSkwAKCCAAABggIAACQCAIAAAAAABAAAABAAAABAAIgAAQCAAAFAAAjAAHAYAwAAAAAAAAAAAAAAAAAAAAAAAAAAAAAAA==

> <PUBCHEM_IUPAC_OPENEYE_NAME>
2-[2-[2-[(2R,3S,4S,5R,6R)-3,4,5-triacetoxy-6-(acetoxymethyl)tetrahydropyran-2-yl]sulfanylethoxy]ethoxy]acetic acid

> <PUBCHEM_IUPAC_CAS_NAME>
2-[2-[2-[[(2R,3S,4S,5R,6R)-3,4,5-triacetyloxy-6-(acetyloxymethyl)-2-oxanyl]thio]ethoxy]ethoxy]acetic acid

> <PUBCHEM_IUPAC_NAME_MARKUP>
2-[2-[2-[(2<I>R</I>,3<I>S</I>,4<I>S</I>,5<I>R</I>,6<I>R</I>)-3,4,5-triacetyloxy-6-(acetyloxymethyl)oxan-2-yl]sulfanylethoxy]ethoxy]acetic acid

> <PUBCHEM_IUPAC_NAME>
2-[2-[2-[(2R,3S,4S,5R,6R)-3,4,5-triacetyloxy-6-(acetyloxymethyl)oxan-2-yl]sulfanylethoxy]ethoxy]acetic acid

> <PUBCHEM_IUPAC_SYSTEMATIC_NAME>
2-[2-[2-[(2R,3S,4S,5R,6R)-3,4,5-triacetyloxy-6-(acetyloxymethyl)oxan-2-yl]sulfanylethoxy]ethoxy]ethanoic acid

> <PUBCHEM_IUPAC_TRADITIONAL_NAME>
2-[2-[2-[[(2R,3S,4S,5R,6R)-3,4,5-triacetoxy-6-(acetoxymethyl)tetrahydropyran-2-yl]thio]ethoxy]ethoxy]acetic acid

> <PUBCHEM_IUPAC_INCHI>
InChI=1S/C20H30O13S/c1-11(21)29-9-15-17(30-12(2)22)18(31-13(3)23)19(32-14(4)24)20(33-15)34-8-7-27-5-6-28-10-16(25)26/h15,17-20H,5-10H2,1-4H3,(H,25,26)/t15-,17-,18+,19+,20-/m1/s1

> <PUBCHEM_IUPAC_INCHIKEY>
HMIFERHOYLAAIN-LFZDHENXSA-N

> <PUBCHEM_XLOGP3_AA>
-0.2

> <PUBCHEM_EXACT_MASS>
510.14071218

> <PUBCHEM_MOLECULAR_FORMULA>
C20H30O13S

> <PUBCHEM_MOLECULAR_WEIGHT>
510.5

> <PUBCHEM_OPENEYE_CAN_SMILES>
CC(=O)OCC1C(C(C(C(O1)SCCOCCOCC(=O)O)OC(=O)C)OC(=O)C)OC(=O)C

> <PUBCHEM_OPENEYE_ISO_SMILES>
CC(=O)OC[C@@H]1[C@H]([C@@H]([C@@H]([C@H](O1)SCCOCCOCC(=O)O)OC(=O)C)OC(=O)C)OC(=O)C

> <PUBCHEM_CACTVS_TPSA>
196

> <PUBCHEM_MONOISOTOPIC_WEIGHT>
510.14071218

> <PUBCHEM_TOTAL_CHARGE>
0

> <PUBCHEM_HEAVY_ATOM_COUNT>
34

> <PUBCHEM_ATOM_DEF_STEREO_COUNT>
5

> <PUBCHEM_ATOM_UDEF_STEREO_COUNT>
0

> <PUBCHEM_BOND_DEF_STEREO_COUNT>
0

> <PUBCHEM_BOND_UDEF_STEREO_COUNT>
0

> <PUBCHEM_ISOTOPIC_ATOM_COUNT>
0

> <PUBCHEM_COMPONENT_COUNT>
1

> <PUBCHEM_CACTVS_TAUTO_COUNT>
-1

> <PUBCHEM_COORDINATE_TYPE>
1
5
255

> <PUBCHEM_BONDANNOTATIONS>
19  1  6
18  20  5
15  3  5
16  4  6
17  5  5

$$$$
