 
  -OEChem-10192103392D

 57 57  0     1  0  0  0  0  0999 V2000
    5.1350   -1.5950    0.0000 P   0  0  3  0  0  0  0  0  0  0  0  0
    4.2690   -2.0950    0.0000 O   0  0  0  0  0  0  0  0  0  0  0  0
    2.5369   -3.0950    0.0000 O   0  0  0  0  0  0  0  0  0  0  0  0
    6.0010   -3.0950    0.0000 O   0  0  0  0  0  0  0  0  0  0  0  0
    2.5369   -5.0950    0.0000 O   0  0  0  0  0  0  0  0  0  0  0  0
    6.0010   -5.0950    0.0000 O   0  0  0  0  0  0  0  0  0  0  0  0
    4.2690   -6.0950    0.0000 O   0  0  0  0  0  0  0  0  0  0  0  0
    6.0010   -1.0950    0.0000 O   0  0  0  0  0  0  0  0  0  0  0  0
    4.6350   -0.7290    0.0000 O   0  0  0  0  0  0  0  0  0  0  0  0
    5.6350   -2.4610    0.0000 O   0  0  0  0  0  0  0  0  0  0  0  0
    7.7331    1.9050    0.0000 O   0  0  0  0  0  0  0  0  0  0  0  0
    7.7331   -0.0950    0.0000 O   0  0  0  0  0  0  0  0  0  0  0  0
    6.8671    3.4050    0.0000 O   0  0  0  0  0  0  0  0  0  0  0  0
    4.2690   -3.0950    0.0000 C   0  0  0  0  0  0  0  0  0  0  0  0
    3.4030   -3.5950    0.0000 C   0  0  3  0  0  0  0  0  0  0  0  0
    5.1350   -3.5950    0.0000 C   0  0  3  0  0  0  0  0  0  0  0  0
    3.4030   -4.5950    0.0000 C   0  0  3  0  0  0  0  0  0  0  0  0
    5.1350   -4.5950    0.0000 C   0  0  3  0  0  0  0  0  0  0  0  0
    4.2690   -5.0950    0.0000 C   0  0  0  0  0  0  0  0  0  0  0  0
    6.0010   -0.0950    0.0000 C   0  0  0  0  0  0  0  0  0  0  0  0
    6.8671    0.4050    0.0000 C   0  0  3  0  0  0  0  0  0  0  0  0
    6.8671    1.4050    0.0000 C   0  0  0  0  0  0  0  0  0  0  0  0
    8.5991    4.4050    0.0000 C   0  0  0  0  0  0  0  0  0  0  0  0
    9.4651    4.9050    0.0000 C   0  0  0  0  0  0  0  0  0  0  0  0
    8.5991    3.4050    0.0000 C   0  0  0  0  0  0  0  0  0  0  0  0
    9.4651    5.9050    0.0000 C   0  0  0  0  0  0  0  0  0  0  0  0
    7.7331    2.9050    0.0000 C   0  0  0  0  0  0  0  0  0  0  0  0
   10.3312    6.4050    0.0000 C   0  0  0  0  0  0  0  0  0  0  0  0
    4.8059   -2.7850    0.0000 H   0  0  0  0  0  0  0  0  0  0  0  0
    3.4030   -2.9750    0.0000 H   0  0  0  0  0  0  0  0  0  0  0  0
    5.6720   -3.9050    0.0000 H   0  0  0  0  0  0  0  0  0  0  0  0
    3.4030   -5.2150    0.0000 H   0  0  0  0  0  0  0  0  0  0  0  0
    5.1350   -5.2150    0.0000 H   0  0  0  0  0  0  0  0  0  0  0  0
    3.7320   -5.4050    0.0000 H   0  0  0  0  0  0  0  0  0  0  0  0
    2.0000   -3.4050    0.0000 H   0  0  0  0  0  0  0  0  0  0  0  0
    6.5380   -3.4050    0.0000 H   0  0  0  0  0  0  0  0  0  0  0  0
    2.5369   -5.7150    0.0000 H   0  0  0  0  0  0  0  0  0  0  0  0
    6.0010   -5.7150    0.0000 H   0  0  0  0  0  0  0  0  0  0  0  0
    3.7320   -6.4050    0.0000 H   0  0  0  0  0  0  0  0  0  0  0  0
    5.7890    0.4876    0.0000 H   0  0  0  0  0  0  0  0  0  0  0  0
    5.3905   -0.2027    0.0000 H   0  0  0  0  0  0  0  0  0  0  0  0
    4.0150   -0.7290    0.0000 H   0  0  0  0  0  0  0  0  0  0  0  0
    7.4040    0.7150    0.0000 H   0  0  0  0  0  0  0  0  0  0  0  0
    6.6550    1.9876    0.0000 H   0  0  0  0  0  0  0  0  0  0  0  0
    6.2565    1.2973    0.0000 H   0  0  0  0  0  0  0  0  0  0  0  0
    8.3871    4.9876    0.0000 H   0  0  0  0  0  0  0  0  0  0  0  0
    7.9885    4.2973    0.0000 H   0  0  0  0  0  0  0  0  0  0  0  0
    9.6772    4.3224    0.0000 H   0  0  0  0  0  0  0  0  0  0  0  0
   10.0757    5.0127    0.0000 H   0  0  0  0  0  0  0  0  0  0  0  0
    8.8112    2.8224    0.0000 H   0  0  0  0  0  0  0  0  0  0  0  0
    9.2097    3.5127    0.0000 H   0  0  0  0  0  0  0  0  0  0  0  0
    9.2531    6.4876    0.0000 H   0  0  0  0  0  0  0  0  0  0  0  0
    8.8546    5.7973    0.0000 H   0  0  0  0  0  0  0  0  0  0  0  0
    8.2700    0.2150    0.0000 H   0  0  0  0  0  0  0  0  0  0  0  0
   10.6412    5.8681    0.0000 H   0  0  0  0  0  0  0  0  0  0  0  0
   10.8681    6.7150    0.0000 H   0  0  0  0  0  0  0  0  0  0  0  0
   10.0212    6.9419    0.0000 H   0  0  0  0  0  0  0  0  0  0  0  0
  1  2  1  0  0  0  0
  1  8  1  0  0  0  0
  1  9  1  0  0  0  0
  1 10  2  0  0  0  0
  2 14  1  0  0  0  0
  3 15  1  0  0  0  0
  3 35  1  0  0  0  0
  4 16  1  0  0  0  0
  4 36  1  0  0  0  0
  5 17  1  0  0  0  0
  5 37  1  0  0  0  0
  6 18  1  0  0  0  0
  6 38  1  0  0  0  0
  7 19  1  0  0  0  0
  7 39  1  0  0  0  0
  8 20  1  0  0  0  0
  9 42  1  0  0  0  0
 11 22  1  0  0  0  0
 11 27  1  0  0  0  0
 12 21  1  0  0  0  0
 12 54  1  0  0  0  0
 13 27  2  0  0  0  0
 14 15  1  0  0  0  0
 14 16  1  0  0  0  0
 14 29  1  0  0  0  0
 15 17  1  0  0  0  0
 15 30  1  0  0  0  0
 16 18  1  0  0  0  0
 16 31  1  0  0  0  0
 17 19  1  0  0  0  0
 17 32  1  0  0  0  0
 18 19  1  0  0  0  0
 18 33  1  0  0  0  0
 19 34  1  0  0  0  0
 20 21  1  0  0  0  0
 20 40  1  0  0  0  0
 20 41  1  0  0  0  0
 21 22  1  0  0  0  0
 21 43  1  0  0  0  0
 22 44  1  0  0  0  0
 22 45  1  0  0  0  0
 23 24  1  0  0  0  0
 23 25  1  0  0  0  0
 23 46  1  0  0  0  0
 23 47  1  0  0  0  0
 24 26  1  0  0  0  0
 24 48  1  0  0  0  0
 24 49  1  0  0  0  0
 25 27  1  0  0  0  0
 25 50  1  0  0  0  0
 25 51  1  0  0  0  0
 26 28  1  0  0  0  0
 26 52  1  0  0  0  0
 26 53  1  0  0  0  0
 28 55  1  0  0  0  0
 28 56  1  0  0  0  0
 28 57  1  0  0  0  0
M  END
> <PUBCHEM_COMPOUND_CID>
138123909

> <PUBCHEM_COMPOUND_CANONICALIZED>
1

> <PUBCHEM_CACTVS_COMPLEXITY>
515

> <PUBCHEM_CACTVS_HBOND_ACCEPTOR>
12

> <PUBCHEM_CACTVS_HBOND_DONOR>
7

> <PUBCHEM_CACTVS_ROTATABLE_BOND>
12

> <PUBCHEM_CACTVS_SUBSKEYS>
AAADceBwPAIAAAAAAAAAAAAAAAAAAAAAAAAwAAAAAAAAAAAAAAAAGgAACCAACBSggAICCAAABxAIQACQCIAAAAAAAAAAAAEAAAABEBIAAAACQAAFAAADAAHIaAQAAAAAAAAAAAACAAAQAACAAAAAAAAAAA==

> <PUBCHEM_IUPAC_OPENEYE_NAME>
[2-hydroxy-3-[hydroxy-(2,3,4,5,6-pentahydroxycyclohexoxy)phosphoryl]oxy-propyl] hexanoate

> <PUBCHEM_IUPAC_CAS_NAME>
hexanoic acid [2-hydroxy-3-[hydroxy-(2,3,4,5,6-pentahydroxycyclohexyl)oxyphosphoryl]oxypropyl] ester

> <PUBCHEM_IUPAC_NAME_MARKUP>
[2-hydroxy-3-[hydroxy-(2,3,4,5,6-pentahydroxycyclohexyl)oxyphosphoryl]oxypropyl] hexanoate

> <PUBCHEM_IUPAC_NAME>
[2-hydroxy-3-[hydroxy-(2,3,4,5,6-pentahydroxycyclohexyl)oxyphosphoryl]oxypropyl] hexanoate

> <PUBCHEM_IUPAC_SYSTEMATIC_NAME>
[2-oxidanyl-3-[oxidanyl-[2,3,4,5,6-pentakis(oxidanyl)cyclohexyl]oxy-phosphoryl]oxy-propyl] hexanoate

> <PUBCHEM_IUPAC_TRADITIONAL_NAME>
hexanoic acid [2-hydroxy-3-[hydroxy-(2,3,4,5,6-pentahydroxycyclohexoxy)phosphoryl]oxy-propyl] ester

> <PUBCHEM_IUPAC_INCHI>
InChI=1S/C15H29O12P/c1-2-3-4-5-9(17)25-6-8(16)7-26-28(23,24)27-15-13(21)11(19)10(18)12(20)14(15)22/h8,10-16,18-22H,2-7H2,1H3,(H,23,24)

> <PUBCHEM_IUPAC_INCHIKEY>
AZICJISKNJZZPC-UHFFFAOYSA-N

> <PUBCHEM_XLOGP3_AA>
-3.1

> <PUBCHEM_EXACT_MASS>
432.13966335

> <PUBCHEM_MOLECULAR_FORMULA>
C15H29O12P

> <PUBCHEM_MOLECULAR_WEIGHT>
432.36

> <PUBCHEM_OPENEYE_CAN_SMILES>
CCCCCC(=O)OCC(COP(=O)(O)OC1C(C(C(C(C1O)O)O)O)O)O

> <PUBCHEM_OPENEYE_ISO_SMILES>
CCCCCC(=O)OCC(COP(=O)(O)OC1C(C(C(C(C1O)O)O)O)O)O

> <PUBCHEM_CACTVS_TPSA>
203

> <PUBCHEM_MONOISOTOPIC_WEIGHT>
432.13966335

> <PUBCHEM_TOTAL_CHARGE>
0

> <PUBCHEM_HEAVY_ATOM_COUNT>
28

> <PUBCHEM_ATOM_DEF_STEREO_COUNT>
0

> <PUBCHEM_ATOM_UDEF_STEREO_COUNT>
5

> <PUBCHEM_BOND_DEF_STEREO_COUNT>
0

> <PUBCHEM_BOND_UDEF_STEREO_COUNT>
0

> <PUBCHEM_ISOTOPIC_ATOM_COUNT>
0

> <PUBCHEM_COMPONENT_COUNT>
1

> <PUBCHEM_CACTVS_TAUTO_COUNT>
-1

> <PUBCHEM_COORDINATE_TYPE>
1
5
255

> <PUBCHEM_BONDANNOTATIONS>
21  12  3
15  3  3
16  4  3
17  5  3
18  6  3

$$$$
