 
  -OEChem-10192104142D

 25 25  0     1  0  0  0  0  0999 V2000
    4.2601   -1.4249    0.0000 O   0  0  0  0  0  0  0  0  0  0  0  0
    2.6723   -2.2339    0.0000 O   0  0  0  0  0  0  0  0  0  0  0  0
    4.6261    1.6139    0.0000 O   0  0  0  0  0  0  0  0  0  0  0  0
    2.8940    1.6139    0.0000 O   0  0  0  0  0  0  0  0  0  0  0  0
    4.5691   -0.4739    0.0000 C   0  0  3  0  0  0  0  0  0  0  0  0
    5.5202   -0.1648    0.0000 C   0  0  0  0  0  0  0  0  0  0  0  0
    3.7601    0.1139    0.0000 C   0  0  0  0  0  0  0  0  0  0  0  0
    6.2633   -0.8340    0.0000 C   0  0  0  0  0  0  0  0  0  0  0  0
    2.9511   -0.4739    0.0000 C   0  0  0  0  0  0  0  0  0  0  0  0
    3.2601   -1.4249    0.0000 C   0  0  0  0  0  0  0  0  0  0  0  0
    7.2144   -0.5250    0.0000 C   0  0  0  0  0  0  0  0  0  0  0  0
    2.0000   -0.1648    0.0000 C   0  0  0  0  0  0  0  0  0  0  0  0
    3.7601    1.1139    0.0000 C   0  0  0  0  0  0  0  0  0  0  0  0
    5.0075   -0.9123    0.0000 H   0  0  0  0  0  0  0  0  0  0  0  0
    6.0087    0.2169    0.0000 H   0  0  0  0  0  0  0  0  0  0  0  0
    5.2291    0.3826    0.0000 H   0  0  0  0  0  0  0  0  0  0  0  0
    5.7747   -1.2157    0.0000 H   0  0  0  0  0  0  0  0  0  0  0  0
    6.5544   -1.3814    0.0000 H   0  0  0  0  0  0  0  0  0  0  0  0
    7.4059   -1.1146    0.0000 H   0  0  0  0  0  0  0  0  0  0  0  0
    7.8040   -0.3334    0.0000 H   0  0  0  0  0  0  0  0  0  0  0  0
    7.0228    0.0647    0.0000 H   0  0  0  0  0  0  0  0  0  0  0  0
    2.1916    0.4248    0.0000 H   0  0  0  0  0  0  0  0  0  0  0  0
    1.4103    0.0268    0.0000 H   0  0  0  0  0  0  0  0  0  0  0  0
    1.8084   -0.7545    0.0000 H   0  0  0  0  0  0  0  0  0  0  0  0
    4.6261    2.2339    0.0000 H   0  0  0  0  0  0  0  0  0  0  0  0
  1  5  1  0  0  0  0
  1 10  1  0  0  0  0
  2 10  2  0  0  0  0
  3 13  1  0  0  0  0
  3 25  1  0  0  0  0
  4 13  2  0  0  0  0
  5  6  1  0  0  0  0
  5  7  1  0  0  0  0
  5 14  1  0  0  0  0
  6  8  1  0  0  0  0
  6 15  1  0  0  0  0
  6 16  1  0  0  0  0
  7  9  2  0  0  0  0
  7 13  1  0  0  0  0
  8 11  1  0  0  0  0
  8 17  1  0  0  0  0
  8 18  1  0  0  0  0
  9 10  1  0  0  0  0
  9 12  1  0  0  0  0
 11 19  1  0  0  0  0
 11 20  1  0  0  0  0
 11 21  1  0  0  0  0
 12 22  1  0  0  0  0
 12 23  1  0  0  0  0
 12 24  1  0  0  0  0
M  END
> <PUBCHEM_COMPOUND_CID>
21579152

> <PUBCHEM_COMPOUND_CANONICALIZED>
1

> <PUBCHEM_CACTVS_COMPLEXITY>
277

> <PUBCHEM_CACTVS_HBOND_ACCEPTOR>
4

> <PUBCHEM_CACTVS_HBOND_DONOR>
1

> <PUBCHEM_CACTVS_ROTATABLE_BOND>
3

> <PUBCHEM_CACTVS_SUBSKEYS>
AAADccBwOAAAAAAAAAAAAAAAAAAAAQAAAAAAAAAAAAAAAAAAAAAAGgAACAAADBSggAICCAAABgCIAgDQCAAAAAAgAAAACAEAAEgABBYAIAACUAAFoAAIMQOISAAAAAAAAAAAAAAAAAAAAAAAAAAAAAAAAA==

> <PUBCHEM_IUPAC_OPENEYE_NAME>
4-methyl-5-oxo-2-propyl-2H-furan-3-carboxylic acid

> <PUBCHEM_IUPAC_CAS_NAME>
4-methyl-5-oxo-2-propyl-2H-furan-3-carboxylic acid

> <PUBCHEM_IUPAC_NAME_MARKUP>
4-methyl-5-oxo-2-propyl-2<I>H</I>-furan-3-carboxylic acid

> <PUBCHEM_IUPAC_NAME>
4-methyl-5-oxo-2-propyl-2H-furan-3-carboxylic acid

> <PUBCHEM_IUPAC_SYSTEMATIC_NAME>
4-methyl-5-oxidanylidene-2-propyl-2H-furan-3-carboxylic acid

> <PUBCHEM_IUPAC_TRADITIONAL_NAME>
5-keto-4-methyl-2-propyl-2H-furan-3-carboxylic acid

> <PUBCHEM_IUPAC_INCHI>
InChI=1S/C9H12O4/c1-3-4-6-7(8(10)11)5(2)9(12)13-6/h6H,3-4H2,1-2H3,(H,10,11)

> <PUBCHEM_IUPAC_INCHIKEY>
GMDXRLRSQUTZAT-UHFFFAOYSA-N

> <PUBCHEM_XLOGP3_AA>
1.1

> <PUBCHEM_EXACT_MASS>
184.07355886

> <PUBCHEM_MOLECULAR_FORMULA>
C9H12O4

> <PUBCHEM_MOLECULAR_WEIGHT>
184.19

> <PUBCHEM_OPENEYE_CAN_SMILES>
CCCC1C(=C(C(=O)O1)C)C(=O)O

> <PUBCHEM_OPENEYE_ISO_SMILES>
CCCC1C(=C(C(=O)O1)C)C(=O)O

> <PUBCHEM_CACTVS_TPSA>
63.6

> <PUBCHEM_MONOISOTOPIC_WEIGHT>
184.07355886

> <PUBCHEM_TOTAL_CHARGE>
0

> <PUBCHEM_HEAVY_ATOM_COUNT>
13

> <PUBCHEM_ATOM_DEF_STEREO_COUNT>
0

> <PUBCHEM_ATOM_UDEF_STEREO_COUNT>
1

> <PUBCHEM_BOND_DEF_STEREO_COUNT>
0

> <PUBCHEM_BOND_UDEF_STEREO_COUNT>
0

> <PUBCHEM_ISOTOPIC_ATOM_COUNT>
0

> <PUBCHEM_COMPONENT_COUNT>
1

> <PUBCHEM_CACTVS_TAUTO_COUNT>
-1

> <PUBCHEM_COORDINATE_TYPE>
1
5
255

> <PUBCHEM_BONDANNOTATIONS>
5  6  3

$$$$
