 
  -OEChem-10192104422D

 27 27  0     0  0  0  0  0  0999 V2000
    3.5823   -0.9649    0.0000 S   0  0  0  0  0  0  0  0  0  0  0  0
    6.7469    0.4441    0.0000 P   0  0  0  0  0  0  0  0  0  0  0  0
    7.5559    1.0319    0.0000 O   0  0  0  0  0  0  0  0  0  0  0  0
    5.9379    1.0319    0.0000 O   0  0  0  0  0  0  0  0  0  0  0  0
    7.3347   -0.3649    0.0000 O   0  0  0  0  0  0  0  0  0  0  0  0
    4.9836   -1.9830    0.0000 O   0  0  0  0  0  0  0  0  0  0  0  0
    6.1591   -0.3649    0.0000 C   0  0  0  0  0  0  0  0  0  0  0  0
    7.2469    1.9830    0.0000 C   0  0  0  0  0  0  0  0  0  0  0  0
    6.2469    1.9830    0.0000 C   0  0  0  0  0  0  0  0  0  0  0  0
    5.1646   -0.2604    0.0000 C   0  0  0  0  0  0  0  0  0  0  0  0
    4.5768   -1.0694    0.0000 C   0  0  0  0  0  0  0  0  0  0  0  0
    6.5659   -1.2785    0.0000 C   0  0  0  0  0  0  0  0  0  0  0  0
    2.9945   -1.7739    0.0000 C   0  0  0  0  0  0  0  0  0  0  0  0
    2.0000   -1.6694    0.0000 C   0  0  0  0  0  0  0  0  0  0  0  0
    7.8534    2.1118    0.0000 H   0  0  0  0  0  0  0  0  0  0  0  0
    7.1821    2.5995    0.0000 H   0  0  0  0  0  0  0  0  0  0  0  0
    6.3117    2.5995    0.0000 H   0  0  0  0  0  0  0  0  0  0  0  0
    5.6405    2.1118    0.0000 H   0  0  0  0  0  0  0  0  0  0  0  0
    5.3355    0.3356    0.0000 H   0  0  0  0  0  0  0  0  0  0  0  0
    4.6074    0.0114    0.0000 H   0  0  0  0  0  0  0  0  0  0  0  0
    6.2014   -1.7800    0.0000 H   0  0  0  0  0  0  0  0  0  0  0  0
    7.1825   -1.3433    0.0000 H   0  0  0  0  0  0  0  0  0  0  0  0
    2.8236   -2.3699    0.0000 H   0  0  0  0  0  0  0  0  0  0  0  0
    3.5518   -2.0457    0.0000 H   0  0  0  0  0  0  0  0  0  0  0  0
    2.0648   -1.0528    0.0000 H   0  0  0  0  0  0  0  0  0  0  0  0
    1.3834   -1.6046    0.0000 H   0  0  0  0  0  0  0  0  0  0  0  0
    1.9352   -2.2860    0.0000 H   0  0  0  0  0  0  0  0  0  0  0  0
  1 11  1  0  0  0  0
  1 13  1  0  0  0  0
  2  3  1  0  0  0  0
  2  4  1  0  0  0  0
  2  5  2  0  0  0  0
  2  7  1  0  0  0  0
  3  8  1  0  0  0  0
  4  9  1  0  0  0  0
  6 11  2  0  0  0  0
  7 10  1  0  0  0  0
  7 12  2  0  0  0  0
  8  9  1  0  0  0  0
  8 15  1  0  0  0  0
  8 16  1  0  0  0  0
  9 17  1  0  0  0  0
  9 18  1  0  0  0  0
 10 11  1  0  0  0  0
 10 19  1  0  0  0  0
 10 20  1  0  0  0  0
 12 21  1  0  0  0  0
 12 22  1  0  0  0  0
 13 14  1  0  0  0  0
 13 23  1  0  0  0  0
 13 24  1  0  0  0  0
 14 25  1  0  0  0  0
 14 26  1  0  0  0  0
 14 27  1  0  0  0  0
M  END
> <PUBCHEM_COMPOUND_CID>
134471223

> <PUBCHEM_COMPOUND_CANONICALIZED>
1

> <PUBCHEM_CACTVS_COMPLEXITY>
279

> <PUBCHEM_CACTVS_HBOND_ACCEPTOR>
5

> <PUBCHEM_CACTVS_HBOND_DONOR>
0

> <PUBCHEM_CACTVS_ROTATABLE_BOND>
5

> <PUBCHEM_CACTVS_SUBSKEYS>
AAADccBwOAJAAAAAAAAAAAAAAAAAASAAAAAAAAAAAAAAAAAAAAAAGgwAACAACACkwAKCAAAAARiIQABSAIAAAAAgABAAAAEAAAgBAAAgAQAAAAAAAAAgAAAAAAAAAAAAAAAAAAAAAAAAAAAAAAAAAAAAAA==

> <PUBCHEM_IUPAC_OPENEYE_NAME>
S-ethyl 3-(2-oxo-1,3,2lambda5-dioxaphospholan-2-yl)but-3-enethioate

> <PUBCHEM_IUPAC_CAS_NAME>
3-(2-oxo-1,3,2lambda5-dioxaphospholan-2-yl)-3-butenethioic acid S-ethyl ester

> <PUBCHEM_IUPAC_NAME_MARKUP>
<I>S</I>-ethyl 3-(2-oxo-1,3,2&lambda;<SUP>5</SUP>-dioxaphospholan-2-yl)but-3-enethioate

> <PUBCHEM_IUPAC_NAME>
S-ethyl 3-(2-oxo-1,3,2lambda5-dioxaphospholan-2-yl)but-3-enethioate

> <PUBCHEM_IUPAC_SYSTEMATIC_NAME>
S-ethyl 3-(2-oxidanylidene-1,3,2lambda5-dioxaphospholan-2-yl)but-3-enethioate

> <PUBCHEM_IUPAC_TRADITIONAL_NAME>
3-(2-keto-1,3,2lambda5-dioxaphospholan-2-yl)but-3-enethioic acid S-ethyl ester

> <PUBCHEM_IUPAC_INCHI>
InChI=1S/C8H13O4PS/c1-3-14-8(9)6-7(2)13(10)11-4-5-12-13/h2-6H2,1H3

> <PUBCHEM_IUPAC_INCHIKEY>
ZSUQZDWHNHLPNK-UHFFFAOYSA-N

> <PUBCHEM_XLOGP3_AA>
0.4

> <PUBCHEM_EXACT_MASS>
236.02721706

> <PUBCHEM_MOLECULAR_FORMULA>
C8H13O4PS

> <PUBCHEM_MOLECULAR_WEIGHT>
236.23

> <PUBCHEM_OPENEYE_CAN_SMILES>
CCSC(=O)CC(=C)P1(=O)OCCO1

> <PUBCHEM_OPENEYE_ISO_SMILES>
CCSC(=O)CC(=C)P1(=O)OCCO1

> <PUBCHEM_CACTVS_TPSA>
77.9

> <PUBCHEM_MONOISOTOPIC_WEIGHT>
236.02721706

> <PUBCHEM_TOTAL_CHARGE>
0

> <PUBCHEM_HEAVY_ATOM_COUNT>
14

> <PUBCHEM_ATOM_DEF_STEREO_COUNT>
0

> <PUBCHEM_ATOM_UDEF_STEREO_COUNT>
0

> <PUBCHEM_BOND_DEF_STEREO_COUNT>
0

> <PUBCHEM_BOND_UDEF_STEREO_COUNT>
0

> <PUBCHEM_ISOTOPIC_ATOM_COUNT>
0

> <PUBCHEM_COMPONENT_COUNT>
1

> <PUBCHEM_CACTVS_TAUTO_COUNT>
-1

> <PUBCHEM_COORDINATE_TYPE>
1
5
255

$$$$
