 
  -OEChem-10192104262D

 96101  0     1  0  0  0  0  0999 V2000
    8.6956   -4.0158    0.0000 S   0  0  0  0  0  0  0  0  0  0  0  0
    6.0975   -2.5158    0.0000 S   0  0  0  0  0  0  0  0  0  0  0  0
   15.2729   -3.5449    0.0000 S   0  0  0  0  0  0  0  0  0  0  0  0
    7.8296   -0.5158    0.0000 O   0  0  0  0  0  0  0  0  0  0  0  0
    8.6956    0.9842    0.0000 O   0  0  0  0  0  0  0  0  0  0  0  0
    9.5616    2.4842    0.0000 O   0  0  0  0  0  0  0  0  0  0  0  0
   11.2755   -1.8031    0.0000 O   0  0  0  0  0  0  0  0  0  0  0  0
    9.5616   -0.5158    0.0000 O   0  0  0  0  0  0  0  0  0  0  0  0
    7.8296    2.4842    0.0000 O   0  0  0  0  0  0  0  0  0  0  0  0
   12.5028   -3.0062    0.0000 O   0  0  0  0  0  0  0  0  0  0  0  0
    9.5616   -2.5158    0.0000 N   0  0  0  0  0  0  0  0  0  0  0  0
   11.2755   -4.2285    0.0000 N   0  0  0  0  0  0  0  0  0  0  0  0
    4.3179   -2.4225    0.0000 N   0  0  0  0  0  0  0  0  0  0  0  0
   14.6900   -5.0543    0.0000 N   0  0  0  0  0  0  0  0  0  0  0  0
    5.1270   -1.0212    0.0000 N   0  0  0  0  0  0  0  0  0  0  0  0
    3.6488   -1.6794    0.0000 N   0  0  0  0  0  0  0  0  0  0  0  0
    4.1488   -0.8133    0.0000 N   0  0  0  0  0  0  0  0  0  0  0  0
    2.9511   -4.6878    0.0000 N   0  0  0  0  0  0  0  0  0  0  0  0
   16.4626   -4.8717    0.0000 N   0  0  0  0  0  0  0  0  0  0  0  0
    6.9635    0.9842    0.0000 C   0  0  0  0  0  0  0  0  0  0  0  0
    6.9635    1.9842    0.0000 C   0  0  0  0  0  0  0  0  0  0  0  0
    6.0975    0.4842    0.0000 C   0  0  0  0  0  0  0  0  0  0  0  0
    6.0975    2.4842    0.0000 C   0  0  0  0  0  0  0  0  0  0  0  0
    5.2315    0.9842    0.0000 C   0  0  0  0  0  0  0  0  0  0  0  0
    5.2315    1.9842    0.0000 C   0  0  0  0  0  0  0  0  0  0  0  0
    9.5616   -3.5158    0.0000 C   0  0  2  0  0  0  0  0  0  0  0  0
    7.8296    0.4842    0.0000 C   0  0  3  0  0  0  0  0  0  0  0  0
   10.5699   -3.5199    0.0000 C   0  0  1  0  0  0  0  0  0  0  0  0
   10.5699   -2.5116    0.0000 C   0  0  0  0  0  0  0  0  0  0  0  0
    8.6956   -2.0158    0.0000 C   0  0  0  0  0  0  0  0  0  0  0  0
    7.8296   -2.5158    0.0000 C   0  0  0  0  0  0  0  0  0  0  0  0
    7.8296   -3.5158    0.0000 C   0  0  0  0  0  0  0  0  0  0  0  0
    9.5616    3.4842    0.0000 C   0  0  0  0  0  0  0  0  0  0  0  0
    8.6956   -1.0158    0.0000 C   0  0  0  0  0  0  0  0  0  0  0  0
   10.4276    3.9842    0.0000 C   0  0  0  0  0  0  0  0  0  0  0  0
    8.6956    3.9842    0.0000 C   0  0  0  0  0  0  0  0  0  0  0  0
   10.4276    4.9842    0.0000 C   0  0  0  0  0  0  0  0  0  0  0  0
    8.6956    4.9842    0.0000 C   0  0  0  0  0  0  0  0  0  0  0  0
    9.5616    5.4842    0.0000 C   0  0  0  0  0  0  0  0  0  0  0  0
    6.9635   -2.0158    0.0000 C   0  0  0  0  0  0  0  0  0  0  0  0
    8.6956    1.9842    0.0000 C   0  0  0  0  0  0  0  0  0  0  0  0
   12.2420   -3.9716    0.0000 C   0  0  0  0  0  0  0  0  0  0  0  0
   12.9476   -4.6802    0.0000 C   0  0  0  0  0  0  0  0  0  0  0  0
   13.9141   -4.4234    0.0000 C   0  0  0  0  0  0  0  0  0  0  0  0
    5.2315   -2.0158    0.0000 C   0  0  0  0  0  0  0  0  0  0  0  0
   14.2744   -3.4905    0.0000 C   0  0  0  0  0  0  0  0  0  0  0  0
    4.1100   -3.4007    0.0000 C   0  0  0  0  0  0  0  0  0  0  0  0
    3.1590   -3.7097    0.0000 C   0  0  0  0  0  0  0  0  0  0  0  0
   15.5297   -4.5114    0.0000 C   0  0  0  0  0  0  0  0  0  0  0  0
    2.0000   -4.9968    0.0000 C   0  0  0  0  0  0  0  0  0  0  0  0
    3.6942   -5.3570    0.0000 C   0  0  0  0  0  0  0  0  0  0  0  0
    6.9635    0.3642    0.0000 H   0  0  0  0  0  0  0  0  0  0  0  0
    7.5741    1.8766    0.0000 H   0  0  0  0  0  0  0  0  0  0  0  0
    7.1756    2.5668    0.0000 H   0  0  0  0  0  0  0  0  0  0  0  0
    5.6990    0.0093    0.0000 H   0  0  0  0  0  0  0  0  0  0  0  0
    6.4960    0.0093    0.0000 H   0  0  0  0  0  0  0  0  0  0  0  0
    6.4960    2.9592    0.0000 H   0  0  0  0  0  0  0  0  0  0  0  0
    5.6990    2.9592    0.0000 H   0  0  0  0  0  0  0  0  0  0  0  0
    4.6209    1.0919    0.0000 H   0  0  0  0  0  0  0  0  0  0  0  0
    5.0194    0.4016    0.0000 H   0  0  0  0  0  0  0  0  0  0  0  0
    5.0194    2.5668    0.0000 H   0  0  0  0  0  0  0  0  0  0  0  0
    4.6209    1.8766    0.0000 H   0  0  0  0  0  0  0  0  0  0  0  0
    9.7799   -4.3373    0.0000 H   0  0  0  0  0  0  0  0  0  0  0  0
    7.8296    1.1042    0.0000 H   0  0  0  0  0  0  0  0  0  0  0  0
   10.3309   -4.0920    0.0000 H   0  0  0  0  0  0  0  0  0  0  0  0
    7.2190   -3.4081    0.0000 H   0  0  0  0  0  0  0  0  0  0  0  0
    7.6175   -4.0984    0.0000 H   0  0  0  0  0  0  0  0  0  0  0  0
   10.0985    3.1742    0.0000 H   0  0  0  0  0  0  0  0  0  0  0  0
   11.1138   -4.8270    0.0000 H   0  0  0  0  0  0  0  0  0  0  0  0
   10.6397    3.4016    0.0000 H   0  0  0  0  0  0  0  0  0  0  0  0
   11.0382    4.0919    0.0000 H   0  0  0  0  0  0  0  0  0  0  0  0
    8.0850    4.0919    0.0000 H   0  0  0  0  0  0  0  0  0  0  0  0
    8.4835    3.4016    0.0000 H   0  0  0  0  0  0  0  0  0  0  0  0
   11.0382    4.8766    0.0000 H   0  0  0  0  0  0  0  0  0  0  0  0
   10.6397    5.5668    0.0000 H   0  0  0  0  0  0  0  0  0  0  0  0
    8.4835    5.5668    0.0000 H   0  0  0  0  0  0  0  0  0  0  0  0
    8.0850    4.8766    0.0000 H   0  0  0  0  0  0  0  0  0  0  0  0
    9.9601    5.9592    0.0000 H   0  0  0  0  0  0  0  0  0  0  0  0
    9.1631    5.9592    0.0000 H   0  0  0  0  0  0  0  0  0  0  0  0
    7.3621   -1.5408    0.0000 H   0  0  0  0  0  0  0  0  0  0  0  0
    6.5650   -1.5408    0.0000 H   0  0  0  0  0  0  0  0  0  0  0  0
   12.4390   -5.0348    0.0000 H   0  0  0  0  0  0  0  0  0  0  0  0
   13.2085   -5.2426    0.0000 H   0  0  0  0  0  0  0  0  0  0  0  0
   13.9378   -2.9699    0.0000 H   0  0  0  0  0  0  0  0  0  0  0  0
    4.1963   -4.0146    0.0000 H   0  0  0  0  0  0  0  0  0  0  0  0
    4.7296   -3.4223    0.0000 H   0  0  0  0  0  0  0  0  0  0  0  0
    3.0727   -3.0957    0.0000 H   0  0  0  0  0  0  0  0  0  0  0  0
    2.5394   -3.6880    0.0000 H   0  0  0  0  0  0  0  0  0  0  0  0
   16.9452   -4.4825    0.0000 H   0  0  0  0  0  0  0  0  0  0  0  0
   16.5583   -5.4842    0.0000 H   0  0  0  0  0  0  0  0  0  0  0  0
    1.8084   -4.4072    0.0000 H   0  0  0  0  0  0  0  0  0  0  0  0
    1.4103   -5.1884    0.0000 H   0  0  0  0  0  0  0  0  0  0  0  0
    2.1916   -5.5865    0.0000 H   0  0  0  0  0  0  0  0  0  0  0  0
    3.2793   -5.8177    0.0000 H   0  0  0  0  0  0  0  0  0  0  0  0
    4.1550   -5.7718    0.0000 H   0  0  0  0  0  0  0  0  0  0  0  0
    4.1091   -4.8962    0.0000 H   0  0  0  0  0  0  0  0  0  0  0  0
  1 26  1  0  0  0  0
  1 32  1  0  0  0  0
  2 40  1  0  0  0  0
  2 45  1  0  0  0  0
  3 46  1  0  0  0  0
  3 49  1  0  0  0  0
  4 27  1  0  0  0  0
  4 34  1  0  0  0  0
  5 27  1  0  0  0  0
  5 41  1  0  0  0  0
  6 33  1  0  0  0  0
  6 41  1  0  0  0  0
  7 29  2  0  0  0  0
  8 34  2  0  0  0  0
  9 41  2  0  0  0  0
 10 42  2  0  0  0  0
 11 26  1  0  0  0  0
 11 29  1  0  0  0  0
 11 30  1  0  0  0  0
 28 12  1  1  0  0  0
 12 42  1  0  0  0  0
 12 69  1  0  0  0  0
 13 16  1  0  0  0  0
 13 45  1  0  0  0  0
 13 47  1  0  0  0  0
 14 44  1  0  0  0  0
 14 49  2  0  0  0  0
 15 17  1  0  0  0  0
 15 45  2  0  0  0  0
 16 17  2  0  0  0  0
 18 48  1  0  0  0  0
 18 50  1  0  0  0  0
 18 51  1  0  0  0  0
 19 49  1  0  0  0  0
 19 89  1  0  0  0  0
 19 90  1  0  0  0  0
 20 21  1  0  0  0  0
 20 22  1  0  0  0  0
 20 27  1  0  0  0  0
 20 52  1  0  0  0  0
 21 23  1  0  0  0  0
 21 53  1  0  0  0  0
 21 54  1  0  0  0  0
 22 24  1  0  0  0  0
 22 55  1  0  0  0  0
 22 56  1  0  0  0  0
 23 25  1  0  0  0  0
 23 57  1  0  0  0  0
 23 58  1  0  0  0  0
 24 25  1  0  0  0  0
 24 59  1  0  0  0  0
 24 60  1  0  0  0  0
 25 61  1  0  0  0  0
 25 62  1  0  0  0  0
 26 28  1  0  0  0  0
 26 63  1  1  0  0  0
 27 64  1  0  0  0  0
 28 29  1  0  0  0  0
 28 65  1  0  0  0  0
 30 31  2  0  0  0  0
 30 34  1  0  0  0  0
 31 32  1  0  0  0  0
 31 40  1  0  0  0  0
 32 66  1  0  0  0  0
 32 67  1  0  0  0  0
 33 35  1  0  0  0  0
 33 36  1  0  0  0  0
 33 68  1  0  0  0  0
 35 37  1  0  0  0  0
 35 70  1  0  0  0  0
 35 71  1  0  0  0  0
 36 38  1  0  0  0  0
 36 72  1  0  0  0  0
 36 73  1  0  0  0  0
 37 39  1  0  0  0  0
 37 74  1  0  0  0  0
 37 75  1  0  0  0  0
 38 39  1  0  0  0  0
 38 76  1  0  0  0  0
 38 77  1  0  0  0  0
 39 78  1  0  0  0  0
 39 79  1  0  0  0  0
 40 80  1  0  0  0  0
 40 81  1  0  0  0  0
 42 43  1  0  0  0  0
 43 44  1  0  0  0  0
 43 82  1  0  0  0  0
 43 83  1  0  0  0  0
 44 46  2  0  0  0  0
 46 84  1  0  0  0  0
 47 48  1  0  0  0  0
 47 85  1  0  0  0  0
 47 86  1  0  0  0  0
 48 87  1  0  0  0  0
 48 88  1  0  0  0  0
 50 91  1  0  0  0  0
 50 92  1  0  0  0  0
 50 93  1  0  0  0  0
 51 94  1  0  0  0  0
 51 95  1  0  0  0  0
 51 96  1  0  0  0  0
M  END
> <PUBCHEM_COMPOUND_CID>
18611946

> <PUBCHEM_COMPOUND_CANONICALIZED>
1

> <PUBCHEM_CACTVS_COMPLEXITY>
1290

> <PUBCHEM_CACTVS_HBOND_ACCEPTOR>
16

> <PUBCHEM_CACTVS_HBOND_DONOR>
2

> <PUBCHEM_CACTVS_ROTATABLE_BOND>
17

> <PUBCHEM_CACTVS_SUBSKEYS>
AAADcfB/+ABgAAAAAAAAAAAAAABYAWLAAAAwYIAAAAAQAAAB4AAAHgQYAAAADTz11gejmRfIFAiuAwXyfAAA8KthirkVSJW4IEiSZBog7SE3EAAEFgK0ISGAwCAOAAAAAAAAAAAAAAAAAAAAAAAAAAAAAA==

> <PUBCHEM_IUPAC_OPENEYE_NAME>
[cyclohexoxycarbonyloxy(cyclohexyl)methyl] (6S,7R)-7-[[2-(2-aminothiazol-4-yl)acetyl]amino]-3-[[1-[2-(dimethylamino)ethyl]tetrazol-5-yl]sulfanylmethyl]-8-oxo-5-thia-1-azabicyclo[4.2.0]oct-2-ene-2-carboxylate

> <PUBCHEM_IUPAC_CAS_NAME>
(6S,7R)-7-[[2-(2-amino-4-thiazolyl)-1-oxoethyl]amino]-3-[[[1-[2-(dimethylamino)ethyl]-5-tetrazolyl]thio]methyl]-8-oxo-5-thia-1-azabicyclo[4.2.0]oct-2-ene-2-carboxylic acid [cyclohexyl-[cyclohexyloxy(oxo)methoxy]methyl] ester

> <PUBCHEM_IUPAC_NAME_MARKUP>
[cyclohexyl(cyclohexyloxycarbonyloxy)methyl] (6<I>S</I>,7<I>R</I>)-7-[[2-(2-amino-1,3-thiazol-4-yl)acetyl]amino]-3-[[1-[2-(dimethylamino)ethyl]tetrazol-5-yl]sulfanylmethyl]-8-oxo-5-thia-1-azabicyclo[4.2.0]oct-2-ene-2-carboxylate

> <PUBCHEM_IUPAC_NAME>
[cyclohexyl(cyclohexyloxycarbonyloxy)methyl] (6S,7R)-7-[[2-(2-amino-1,3-thiazol-4-yl)acetyl]amino]-3-[[1-[2-(dimethylamino)ethyl]tetrazol-5-yl]sulfanylmethyl]-8-oxo-5-thia-1-azabicyclo[4.2.0]oct-2-ene-2-carboxylate

> <PUBCHEM_IUPAC_SYSTEMATIC_NAME>
[cyclohexyl(cyclohexyloxycarbonyloxy)methyl] (6S,7R)-7-[2-(2-azanyl-1,3-thiazol-4-yl)ethanoylamino]-3-[[1-[2-(dimethylamino)ethyl]-1,2,3,4-tetrazol-5-yl]sulfanylmethyl]-8-oxidanylidene-5-thia-1-azabicyclo[4.2.0]oct-2-ene-2-carboxylate

> <PUBCHEM_IUPAC_TRADITIONAL_NAME>
(6S,7R)-7-[[2-(2-aminothiazol-4-yl)acetyl]amino]-3-[[[1-[2-(dimethylamino)ethyl]tetrazol-5-yl]thio]methyl]-8-keto-5-thia-1-azabicyclo[4.2.0]oct-2-ene-2-carboxylic acid [cyclohexoxycarbonyloxy(cyclohexyl)methyl] ester

> <PUBCHEM_IUPAC_INCHI>
InChI=1S/C32H45N9O7S3/c1-39(2)13-14-40-31(36-37-38-40)51-17-20-16-49-27-24(35-23(42)15-21-18-50-30(33)34-21)26(43)41(27)25(20)28(44)47-29(19-9-5-3-6-10-19)48-32(45)46-22-11-7-4-8-12-22/h18-19,22,24,27,29H,3-17H2,1-2H3,(H2,33,34)(H,35,42)/t24-,27+,29?/m1/s1

> <PUBCHEM_IUPAC_INCHIKEY>
HLRJOPRDAQVQEC-JWCQMFRASA-N

> <PUBCHEM_XLOGP3>
4.8

> <PUBCHEM_EXACT_MASS>
763.26040833

> <PUBCHEM_MOLECULAR_FORMULA>
C32H45N9O7S3

> <PUBCHEM_MOLECULAR_WEIGHT>
764.0

> <PUBCHEM_OPENEYE_CAN_SMILES>
CN(C)CCN1C(=NN=N1)SCC2=C(N3C(C(C3=O)NC(=O)CC4=CSC(=N4)N)SC2)C(=O)OC(C5CCCCC5)OC(=O)OC6CCCCC6

> <PUBCHEM_OPENEYE_ISO_SMILES>
CN(C)CCN1C(=NN=N1)SCC2=C(N3[C@H]([C@@H](C3=O)NC(=O)CC4=CSC(=N4)N)SC2)C(=O)OC(C5CCCCC5)OC(=O)OC6CCCCC6

> <PUBCHEM_CACTVS_TPSA>
276

> <PUBCHEM_MONOISOTOPIC_WEIGHT>
763.26040833

> <PUBCHEM_TOTAL_CHARGE>
0

> <PUBCHEM_HEAVY_ATOM_COUNT>
51

> <PUBCHEM_ATOM_DEF_STEREO_COUNT>
2

> <PUBCHEM_ATOM_UDEF_STEREO_COUNT>
1

> <PUBCHEM_BOND_DEF_STEREO_COUNT>
0

> <PUBCHEM_BOND_UDEF_STEREO_COUNT>
0

> <PUBCHEM_ISOTOPIC_ATOM_COUNT>
0

> <PUBCHEM_COMPONENT_COUNT>
1

> <PUBCHEM_CACTVS_TAUTO_COUNT>
-1

> <PUBCHEM_COORDINATE_TYPE>
1
5
255

> <PUBCHEM_BONDANNOTATIONS>
28  12  5
13  16  8
13  45  8
14  44  8
14  49  8
15  17  8
15  45  8
16  17  8
26  63  5
3  46  8
3  49  8
44  46  8
27  5  3

$$$$
