 
  -OEChem-10192103322D

 45 47  0     1  0  0  0  0  0999 V2000
    9.5668    1.7397    0.0000 S   0  0  0  0  0  0  0  0  0  0  0  0
    5.1646   -2.3126    0.0000 P   0  3  0  0  0  0  0  0  0  0  0  0
    7.0257    0.1519    0.0000 O   0  0  0  0  0  0  0  0  0  0  0  0
    9.5948   -0.1571    0.0000 O   0  0  0  0  0  0  0  0  0  0  0  0
    8.9225   -1.6082    0.0000 O   0  0  0  0  0  0  0  0  0  0  0  0
    5.7524   -1.5036    0.0000 O   0  0  0  0  0  0  0  0  0  0  0  0
    4.1701   -2.2081    0.0000 O   0  0  0  0  0  0  0  0  0  0  0  0
    7.8347    4.7397    0.0000 O   0  0  0  0  0  0  0  0  0  0  0  0
    5.5714   -3.2262    0.0000 O   0  0  0  0  0  0  0  0  0  0  0  0
    7.8347    1.7397    0.0000 N   0  0  0  0  0  0  0  0  0  0  0  0
    8.7007    3.2397    0.0000 N   0  0  0  0  0  0  0  0  0  0  0  0
    8.6437    0.1519    0.0000 C   0  0  3  0  0  0  0  0  0  0  0  0
    8.3347   -0.7991    0.0000 C   0  0  3  0  0  0  0  0  0  0  0  0
    7.8347    0.7397    0.0000 C   0  0  3  0  0  0  0  0  0  0  0  0
    7.3347   -0.7991    0.0000 C   0  0  3  0  0  0  0  0  0  0  0  0
    9.2315    0.9609    0.0000 C   0  0  0  0  0  0  0  0  0  0  0  0
    6.7469   -1.6082    0.0000 C   0  0  0  0  0  0  0  0  0  0  0  0
    8.7007    2.2397    0.0000 C   0  0  0  0  0  0  0  0  0  0  0  0
    6.9687    2.2397    0.0000 C   0  0  0  0  0  0  0  0  0  0  0  0
    6.9687    3.2397    0.0000 C   0  0  0  0  0  0  0  0  0  0  0  0
    7.8347    3.7397    0.0000 C   0  0  0  0  0  0  0  0  0  0  0  0
    3.5823   -3.0171    0.0000 C   0  0  0  0  0  0  0  0  0  0  0  0
    3.9890   -3.9307    0.0000 C   0  0  0  0  0  0  0  0  0  0  0  0
    2.5878   -2.9126    0.0000 C   0  0  0  0  0  0  0  0  0  0  0  0
    3.4013   -4.7397    0.0000 C   0  0  0  0  0  0  0  0  0  0  0  0
    2.0000   -3.7216    0.0000 C   0  0  0  0  0  0  0  0  0  0  0  0
    2.4067   -4.6352    0.0000 C   0  0  0  0  0  0  0  0  0  0  0  0
    8.0532   -1.3516    0.0000 H   0  0  0  0  0  0  0  0  0  0  0  0
    8.3871    1.0212    0.0000 H   0  0  0  0  0  0  0  0  0  0  0  0
    6.7223   -0.7022    0.0000 H   0  0  0  0  0  0  0  0  0  0  0  0
    9.7331    0.5965    0.0000 H   0  0  0  0  0  0  0  0  0  0  0  0
    9.5959    1.4625    0.0000 H   0  0  0  0  0  0  0  0  0  0  0  0
    8.7299    1.3254    0.0000 H   0  0  0  0  0  0  0  0  0  0  0  0
    6.5760   -2.2041    0.0000 H   0  0  0  0  0  0  0  0  0  0  0  0
    7.3042   -1.8800    0.0000 H   0  0  0  0  0  0  0  0  0  0  0  0
   10.0555    0.2578    0.0000 H   0  0  0  0  0  0  0  0  0  0  0  0
    8.6703   -2.1746    0.0000 H   0  0  0  0  0  0  0  0  0  0  0  0
    6.4318    1.9297    0.0000 H   0  0  0  0  0  0  0  0  0  0  0  0
    9.2377    3.5497    0.0000 H   0  0  0  0  0  0  0  0  0  0  0  0
    6.4318    3.5497    0.0000 H   0  0  0  0  0  0  0  0  0  0  0  0
    4.6056   -3.9955    0.0000 H   0  0  0  0  0  0  0  0  0  0  0  0
    2.3356   -2.3462    0.0000 H   0  0  0  0  0  0  0  0  0  0  0  0
    3.6534   -5.3061    0.0000 H   0  0  0  0  0  0  0  0  0  0  0  0
    1.3834   -3.6568    0.0000 H   0  0  0  0  0  0  0  0  0  0  0  0
    2.0423   -5.1368    0.0000 H   0  0  0  0  0  0  0  0  0  0  0  0
  1 18  2  0  0  0  0
  2  6  1  0  0  0  0
  2  7  1  0  0  0  0
  2  9  2  0  0  0  0
  3 14  1  0  0  0  0
  3 15  1  0  0  0  0
  4 12  1  0  0  0  0
  4 36  1  0  0  0  0
  5 13  1  0  0  0  0
  5 37  1  0  0  0  0
  6 17  1  0  0  0  0
  7 22  1  0  0  0  0
  8 21  2  0  0  0  0
 10 14  1  0  0  0  0
 10 18  1  0  0  0  0
 10 19  1  0  0  0  0
 11 18  1  0  0  0  0
 11 21  1  0  0  0  0
 11 39  1  0  0  0  0
 12 13  1  0  0  0  0
 12 14  1  0  0  0  0
 12 16  1  0  0  0  0
 13 15  1  0  0  0  0
 13 28  1  0  0  0  0
 14 29  1  0  0  0  0
 15 17  1  0  0  0  0
 15 30  1  0  0  0  0
 16 31  1  0  0  0  0
 16 32  1  0  0  0  0
 16 33  1  0  0  0  0
 17 34  1  0  0  0  0
 17 35  1  0  0  0  0
 19 20  2  0  0  0  0
 19 38  1  0  0  0  0
 20 21  1  0  0  0  0
 20 40  1  0  0  0  0
 22 23  2  0  0  0  0
 22 24  1  0  0  0  0
 23 25  1  0  0  0  0
 23 41  1  0  0  0  0
 24 26  2  0  0  0  0
 24 42  1  0  0  0  0
 25 27  2  0  0  0  0
 25 43  1  0  0  0  0
 26 27  1  0  0  0  0
 26 44  1  0  0  0  0
 27 45  1  0  0  0  0
M  CHG  1   2   1
M  END
> <PUBCHEM_COMPOUND_CID>
123330927

> <PUBCHEM_COMPOUND_CANONICALIZED>
1

> <PUBCHEM_CACTVS_COMPLEXITY>
642

> <PUBCHEM_CACTVS_HBOND_ACCEPTOR>
8

> <PUBCHEM_CACTVS_HBOND_DONOR>
3

> <PUBCHEM_CACTVS_ROTATABLE_BOND>
6

> <PUBCHEM_CACTVS_SUBSKEYS>
AAADceB7OAJAAAAAAAAAAAAAAAAAASAAAAAwQAAAAAAAAAABAAAAHgQQCCAADFThkAYzBoPABxCMQCFWUICCAAAgIgkIiAAOCMiLNiKAkRKOcAAv0RMbiMfwcAIMAAAAAAAAAAAAAAAAAAAAAAAAAAAAAA==

> <PUBCHEM_IUPAC_OPENEYE_NAME>
[3,4-dihydroxy-4-methyl-5-(4-oxo-2-thioxo-pyrimidin-1-yl)tetrahydrofuran-2-yl]methoxy-oxo-phenoxy-phosphonium

> <PUBCHEM_IUPAC_CAS_NAME>
[3,4-dihydroxy-4-methyl-5-(4-oxo-2-sulfanylidene-1-pyrimidinyl)-2-oxolanyl]methoxy-oxo-phenoxyphosphonium

> <PUBCHEM_IUPAC_NAME_MARKUP>
[3,4-dihydroxy-4-methyl-5-(4-oxo-2-sulfanylidenepyrimidin-1-yl)oxolan-2-yl]methoxy-oxo-phenoxyphosphanium

> <PUBCHEM_IUPAC_NAME>
[3,4-dihydroxy-4-methyl-5-(4-oxo-2-sulfanylidenepyrimidin-1-yl)oxolan-2-yl]methoxy-oxo-phenoxyphosphanium

> <PUBCHEM_IUPAC_SYSTEMATIC_NAME>
[4-methyl-3,4-bis(oxidanyl)-5-(4-oxidanylidene-2-sulfanylidene-pyrimidin-1-yl)oxolan-2-yl]methoxy-oxidanylidene-phenoxy-phosphanium

> <PUBCHEM_IUPAC_TRADITIONAL_NAME>
[3,4-dihydroxy-5-(4-keto-2-thioxo-pyrimidin-1-yl)-4-methyl-tetrahydrofuran-2-yl]methoxy-keto-phenoxy-phosphonium

> <PUBCHEM_IUPAC_INCHI>
InChI=1S/C16H17N2O7PS/c1-16(21)13(20)11(9-23-26(22)25-10-5-3-2-4-6-10)24-14(16)18-8-7-12(19)17-15(18)27/h2-8,11,13-14,20-21H,9H2,1H3/p+1

> <PUBCHEM_IUPAC_INCHIKEY>
MLGHGNKYAKGOLR-UHFFFAOYSA-O

> <PUBCHEM_XLOGP3_AA>
-0.1

> <PUBCHEM_EXACT_MASS>
413.05723409

> <PUBCHEM_MOLECULAR_FORMULA>
C16H18N2O7PS+

> <PUBCHEM_MOLECULAR_WEIGHT>
413.4

> <PUBCHEM_OPENEYE_CAN_SMILES>
CC1(C(C(OC1N2C=CC(=O)NC2=S)CO[P+](=O)OC3=CC=CC=C3)O)O

> <PUBCHEM_OPENEYE_ISO_SMILES>
CC1(C(C(OC1N2C=CC(=O)NC2=S)CO[P+](=O)OC3=CC=CC=C3)O)O

> <PUBCHEM_CACTVS_TPSA>
150

> <PUBCHEM_MONOISOTOPIC_WEIGHT>
413.05723409

> <PUBCHEM_TOTAL_CHARGE>
1

> <PUBCHEM_HEAVY_ATOM_COUNT>
27

> <PUBCHEM_ATOM_DEF_STEREO_COUNT>
0

> <PUBCHEM_ATOM_UDEF_STEREO_COUNT>
4

> <PUBCHEM_BOND_DEF_STEREO_COUNT>
0

> <PUBCHEM_BOND_UDEF_STEREO_COUNT>
0

> <PUBCHEM_ISOTOPIC_ATOM_COUNT>
0

> <PUBCHEM_COMPONENT_COUNT>
1

> <PUBCHEM_CACTVS_TAUTO_COUNT>
-1

> <PUBCHEM_COORDINATE_TYPE>
1
5
255

> <PUBCHEM_BONDANNOTATIONS>
14  10  3
10  18  8
10  19  8
11  18  8
11  21  8
15  17  3
19  20  8
20  21  8
22  23  8
22  24  8
23  25  8
24  26  8
25  27  8
26  27  8
12  4  3
13  5  3

$$$$
