 
  -OEChem-10192104042D

 52 54  0     1  0  0  0  0  0999 V2000
    6.0010    0.5950    0.0000 O   0  0  0  0  0  0  0  0  0  0  0  0
    6.8671   -0.9050    0.0000 O   0  0  0  0  0  0  0  0  0  0  0  0
    8.9900    2.8502    0.0000 O   0  0  0  0  0  0  0  0  0  0  0  0
    5.1350   -0.9050    0.0000 O   0  0  0  0  0  0  0  0  0  0  0  0
    5.1350    2.0950    0.0000 O   0  0  0  0  0  0  0  0  0  0  0  0
    9.9685   -0.8665    0.0000 O   0  0  0  0  0  0  0  0  0  0  0  0
    6.8671   -2.9050    0.0000 O   0  0  0  0  0  0  0  0  0  0  0  0
    6.0010    3.5950    0.0000 O   0  0  0  0  0  0  0  0  0  0  0  0
    5.1350   -3.9050    0.0000 O   0  0  0  0  0  0  0  0  0  0  0  0
    3.4030   -2.9050    0.0000 O   0  0  0  0  0  0  0  0  0  0  0  0
    7.7331    3.5950    0.0000 O   0  0  0  0  0  0  0  0  0  0  0  0
    2.5369   -1.4050    0.0000 O   0  0  0  0  0  0  0  0  0  0  0  0
    7.7331    1.5950    0.0000 C   0  0  1  0  0  0  0  0  0  0  0  0
    7.7331    0.5950    0.0000 C   0  0  2  0  0  0  0  0  0  0  0  0
    6.8671    2.0950    0.0000 C   0  0  2  0  0  0  0  0  0  0  0  0
    8.6793    1.8997    0.0000 C   0  0  2  0  0  0  0  0  0  0  0  0
    6.8671    0.0950    0.0000 C   0  0  1  0  0  0  0  0  0  0  0  0
    8.6793    0.2903    0.0000 C   0  0  0  0  0  0  0  0  0  0  0  0
    6.0010    1.5950    0.0000 C   0  0  2  0  0  0  0  0  0  0  0  0
    9.2629    1.0950    0.0000 C   0  0  0  0  0  0  0  0  0  0  0  0
    6.0010   -1.4050    0.0000 C   0  0  2  0  0  0  0  0  0  0  0  0
    8.9900   -0.6603    0.0000 C   0  0  0  0  0  0  0  0  0  0  0  0
    6.8671    3.0950    0.0000 C   0  0  0  0  0  0  0  0  0  0  0  0
    6.0010   -2.4050    0.0000 C   0  0  1  0  0  0  0  0  0  0  0  0
    5.1350   -2.9050    0.0000 C   0  0  2  0  0  0  0  0  0  0  0  0
    4.2690   -2.4050    0.0000 C   0  0  1  0  0  0  0  0  0  0  0  0
    4.2690   -1.4050    0.0000 C   0  0  1  0  0  0  0  0  0  0  0  0
    3.4030   -0.9050    0.0000 C   0  0  0  0  0  0  0  0  0  0  0  0
    7.8230    2.4402    0.0000 H   0  0  0  0  0  0  0  0  0  0  0  0
    7.8230   -0.2502    0.0000 H   0  0  0  0  0  0  0  0  0  0  0  0
    7.4040    2.4050    0.0000 H   0  0  0  0  0  0  0  0  0  0  0  0
    8.2418    2.3391    0.0000 H   0  0  0  0  0  0  0  0  0  0  0  0
    7.4040   -0.2150    0.0000 H   0  0  0  0  0  0  0  0  0  0  0  0
    6.0010    2.2150    0.0000 H   0  0  0  0  0  0  0  0  0  0  0  0
    9.8829    1.0950    0.0000 H   0  0  0  0  0  0  0  0  0  0  0  0
    6.0010   -0.7850    0.0000 H   0  0  0  0  0  0  0  0  0  0  0  0
    8.3762   -0.7476    0.0000 H   0  0  0  0  0  0  0  0  0  0  0  0
    8.9694   -1.2799    0.0000 H   0  0  0  0  0  0  0  0  0  0  0  0
    6.0010   -3.0250    0.0000 H   0  0  0  0  0  0  0  0  0  0  0  0
    4.5981   -3.2150    0.0000 H   0  0  0  0  0  0  0  0  0  0  0  0
    4.2690   -3.0250    0.0000 H   0  0  0  0  0  0  0  0  0  0  0  0
    4.2690   -0.7850    0.0000 H   0  0  0  0  0  0  0  0  0  0  0  0
    9.5966    2.9781    0.0000 H   0  0  0  0  0  0  0  0  0  0  0  0
    4.5981    1.7850    0.0000 H   0  0  0  0  0  0  0  0  0  0  0  0
    3.8015   -0.4301    0.0000 H   0  0  0  0  0  0  0  0  0  0  0  0
    3.0044   -0.4301    0.0000 H   0  0  0  0  0  0  0  0  0  0  0  0
    6.8671   -3.5250    0.0000 H   0  0  0  0  0  0  0  0  0  0  0  0
   10.1611   -1.4558    0.0000 H   0  0  0  0  0  0  0  0  0  0  0  0
    6.0010    4.2150    0.0000 H   0  0  0  0  0  0  0  0  0  0  0  0
    4.5981   -4.2150    0.0000 H   0  0  0  0  0  0  0  0  0  0  0  0
    3.4030   -3.5250    0.0000 H   0  0  0  0  0  0  0  0  0  0  0  0
    2.0000   -1.0950    0.0000 H   0  0  0  0  0  0  0  0  0  0  0  0
  1 17  1  0  0  0  0
  1 19  1  0  0  0  0
 17  2  1  6  0  0  0
 21  2  1  1  0  0  0
 16  3  1  1  0  0  0
  3 43  1  0  0  0  0
  4 21  1  0  0  0  0
  4 27  1  0  0  0  0
 19  5  1  6  0  0  0
  5 44  1  0  0  0  0
  6 22  1  0  0  0  0
  6 48  1  0  0  0  0
 24  7  1  6  0  0  0
  7 47  1  0  0  0  0
  8 23  1  0  0  0  0
  8 49  1  0  0  0  0
 25  9  1  1  0  0  0
  9 50  1  0  0  0  0
 26 10  1  6  0  0  0
 10 51  1  0  0  0  0
 11 23  2  0  0  0  0
 12 28  1  0  0  0  0
 12 52  1  0  0  0  0
 13 14  1  0  0  0  0
 13 15  1  0  0  0  0
 13 16  1  0  0  0  0
 13 29  1  6  0  0  0
 14 17  1  0  0  0  0
 14 18  1  0  0  0  0
 14 30  1  6  0  0  0
 15 19  1  0  0  0  0
 15 23  1  6  0  0  0
 15 31  1  0  0  0  0
 16 20  1  0  0  0  0
 16 32  1  0  0  0  0
 17 33  1  0  0  0  0
 18 20  2  0  0  0  0
 18 22  1  0  0  0  0
 19 34  1  0  0  0  0
 20 35  1  0  0  0  0
 21 24  1  0  0  0  0
 21 36  1  0  0  0  0
 22 37  1  0  0  0  0
 22 38  1  0  0  0  0
 24 25  1  0  0  0  0
 24 39  1  0  0  0  0
 25 26  1  0  0  0  0
 25 40  1  0  0  0  0
 26 27  1  0  0  0  0
 26 41  1  0  0  0  0
 27 28  1  1  0  0  0
 27 42  1  0  0  0  0
 28 45  1  0  0  0  0
 28 46  1  0  0  0  0
M  END
> <PUBCHEM_COMPOUND_CID>
101423378

> <PUBCHEM_COMPOUND_CANONICALIZED>
1

> <PUBCHEM_CACTVS_COMPLEXITY>
610

> <PUBCHEM_CACTVS_HBOND_ACCEPTOR>
12

> <PUBCHEM_CACTVS_HBOND_DONOR>
8

> <PUBCHEM_CACTVS_ROTATABLE_BOND>
5

> <PUBCHEM_CACTVS_SUBSKEYS>
AAADceB4PAAAAAAAAAAAAAAAAAAAAQAAAAAkSAAAAAAAAEAAAAAAGgAACAAADRSwgAMACAAABgCIAiDSCAAAAAAgAAAACAEAAAgRFBYAAQAiUAAF4AAPEAPKbBwOgAAAAAAAAAAAAAAAAAAAAAAAAAAAAA==

> <PUBCHEM_IUPAC_OPENEYE_NAME>
(1S,3S,4R,4aS,5R,7aS)-3,5-dihydroxy-7-(hydroxymethyl)-1-[(2S,3R,4S,5S,6R)-3,4,5-trihydroxy-6-(hydroxymethyl)tetrahydropyran-2-yl]oxy-1,3,4,4a,5,7a-hexahydrocyclopenta[c]pyran-4-carboxylic acid

> <PUBCHEM_IUPAC_CAS_NAME>
(1S,3S,4R,4aS,5R,7aS)-3,5-dihydroxy-7-(hydroxymethyl)-1-[[(2S,3R,4S,5S,6R)-3,4,5-trihydroxy-6-(hydroxymethyl)-2-oxanyl]oxy]-1,3,4,4a,5,7a-hexahydrocyclopenta[c]pyran-4-carboxylic acid

> <PUBCHEM_IUPAC_NAME_MARKUP>
(1<I>S</I>,3<I>S</I>,4<I>R</I>,4<I>a</I><I>S</I>,5<I>R</I>,7<I>a</I><I>S</I>)-3,5-dihydroxy-7-(hydroxymethyl)-1-[(2<I>S</I>,3<I>R</I>,4<I>S</I>,5<I>S</I>,6<I>R</I>)-3,4,5-trihydroxy-6-(hydroxymethyl)oxan-2-yl]oxy-1,3,4,4<I>a</I>,5,7<I>a</I>-hexahydrocyclopenta[c]pyran-4-carboxylic acid

> <PUBCHEM_IUPAC_NAME>
(1S,3S,4R,4aS,5R,7aS)-3,5-dihydroxy-7-(hydroxymethyl)-1-[(2S,3R,4S,5S,6R)-3,4,5-trihydroxy-6-(hydroxymethyl)oxan-2-yl]oxy-1,3,4,4a,5,7a-hexahydrocyclopenta[c]pyran-4-carboxylic acid

> <PUBCHEM_IUPAC_SYSTEMATIC_NAME>
(1S,3S,4R,4aS,5R,7aS)-7-(hydroxymethyl)-1-[(2S,3R,4S,5S,6R)-6-(hydroxymethyl)-3,4,5-tris(oxidanyl)oxan-2-yl]oxy-3,5-bis(oxidanyl)-1,3,4,4a,5,7a-hexahydrocyclopenta[c]pyran-4-carboxylic acid

> <PUBCHEM_IUPAC_TRADITIONAL_NAME>
(1S,3S,4R,4aS,5R,7aS)-3,5-dihydroxy-7-methylol-1-[(2S,3R,4S,5S,6R)-3,4,5-trihydroxy-6-methylol-tetrahydropyran-2-yl]oxy-1,3,4,4a,5,7a-hexahydrocyclopenta[c]pyran-4-carboxylic acid

> <PUBCHEM_IUPAC_INCHI>
InChI=1S/C16H24O12/c17-2-4-1-5(19)8-7(4)15(27-14(25)9(8)13(23)24)28-16-12(22)11(21)10(20)6(3-18)26-16/h1,5-12,14-22,25H,2-3H2,(H,23,24)/t5-,6+,7+,8-,9-,10+,11-,12+,14-,15-,16-/m0/s1

> <PUBCHEM_IUPAC_INCHIKEY>
FRXRYOQPBQMBPN-IBGBEGDWSA-N

> <PUBCHEM_XLOGP3_AA>
-3.9

> <PUBCHEM_EXACT_MASS>
408.12677620

> <PUBCHEM_MOLECULAR_FORMULA>
C16H24O12

> <PUBCHEM_MOLECULAR_WEIGHT>
408.35

> <PUBCHEM_OPENEYE_CAN_SMILES>
C1=C(C2C(C1O)C(C(OC2OC3C(C(C(C(O3)CO)O)O)O)O)C(=O)O)CO

> <PUBCHEM_OPENEYE_ISO_SMILES>
C1=C([C@@H]2[C@H]([C@H]1O)[C@H]([C@H](O[C@H]2O[C@H]3[C@@H]([C@H]([C@@H]([C@H](O3)CO)O)O)O)O)C(=O)O)CO

> <PUBCHEM_CACTVS_TPSA>
207

> <PUBCHEM_MONOISOTOPIC_WEIGHT>
408.12677620

> <PUBCHEM_TOTAL_CHARGE>
0

> <PUBCHEM_HEAVY_ATOM_COUNT>
28

> <PUBCHEM_ATOM_DEF_STEREO_COUNT>
11

> <PUBCHEM_ATOM_UDEF_STEREO_COUNT>
0

> <PUBCHEM_BOND_DEF_STEREO_COUNT>
0

> <PUBCHEM_BOND_UDEF_STEREO_COUNT>
0

> <PUBCHEM_ISOTOPIC_ATOM_COUNT>
0

> <PUBCHEM_COMPONENT_COUNT>
1

> <PUBCHEM_CACTVS_TAUTO_COUNT>
-1

> <PUBCHEM_COORDINATE_TYPE>
1
5
255

> <PUBCHEM_BONDANNOTATIONS>
26  10  6
13  29  6
14  30  6
15  23  6
17  2  6
21  2  5
27  28  5
16  3  5
19  5  6
24  7  6
25  9  5

$$$$
