 
  -OEChem-10192104362D

 33 35  0     0  0  0  0  0  0999 V2000
    8.4939    1.0904    0.0000 S   0  0  0  0  0  0  0  0  0  0  0  0
    6.4103    1.0291    0.0000 S   0  0  0  0  0  0  0  0  0  0  0  0
    9.4884   -0.7462    0.0000 S   0  0  0  0  0  0  0  0  0  0  0  0
    9.3600    0.5904    0.0000 O   0  0  0  0  0  0  0  0  0  0  0  0
    7.6279    1.5904    0.0000 O   0  0  0  0  0  0  0  0  0  0  0  0
    2.0000    0.7244    0.0000 O   0  5  0  0  0  0  0  0  0  0  0  0
    2.8660    2.2244    0.0000 O   0  0  0  0  0  0  0  0  0  0  0  0
    7.9939    0.2244    0.0000 N   0  0  0  0  0  0  0  0  0  0  0  0
    6.4103   -0.5804    0.0000 N   0  0  0  0  0  0  0  0  0  0  0  0
    8.8303   -2.2244    0.0000 N   0  0  0  0  0  0  0  0  0  0  0  0
    2.8660    1.2244    0.0000 N   0  3  0  0  0  0  0  0  0  0  0  0
    8.9939    1.9564    0.0000 C   0  0  0  0  0  0  0  0  0  0  0  0
    6.9939    0.2244    0.0000 C   0  0  0  0  0  0  0  0  0  0  0  0
    8.4939   -0.6417    0.0000 C   0  0  0  0  0  0  0  0  0  0  0  0
    5.4641    0.7244    0.0000 C   0  0  0  0  0  0  0  0  0  0  0  0
    5.4641   -0.2756    0.0000 C   0  0  0  0  0  0  0  0  0  0  0  0
    9.9939    1.9564    0.0000 C   0  0  0  0  0  0  0  0  0  0  0  0
    4.5981    1.2244    0.0000 C   0  0  0  0  0  0  0  0  0  0  0  0
    4.5981   -0.7756    0.0000 C   0  0  0  0  0  0  0  0  0  0  0  0
    3.7320    0.7244    0.0000 C   0  0  0  0  0  0  0  0  0  0  0  0
    8.0872   -1.5552    0.0000 C   0  0  0  0  0  0  0  0  0  0  0  0
    3.7320   -0.2756    0.0000 C   0  0  0  0  0  0  0  0  0  0  0  0
    9.6964   -1.7244    0.0000 C   0  0  0  0  0  0  0  0  0  0  0  0
    9.1016    2.5670    0.0000 H   0  0  0  0  0  0  0  0  0  0  0  0
    8.4113    2.1684    0.0000 H   0  0  0  0  0  0  0  0  0  0  0  0
    9.9939    1.3364    0.0000 H   0  0  0  0  0  0  0  0  0  0  0  0
   10.6139    1.9564    0.0000 H   0  0  0  0  0  0  0  0  0  0  0  0
    9.9939    2.5764    0.0000 H   0  0  0  0  0  0  0  0  0  0  0  0
    4.5981    1.8444    0.0000 H   0  0  0  0  0  0  0  0  0  0  0  0
    4.5981   -1.3956    0.0000 H   0  0  0  0  0  0  0  0  0  0  0  0
    7.4807   -1.6841    0.0000 H   0  0  0  0  0  0  0  0  0  0  0  0
    3.1951   -0.5856    0.0000 H   0  0  0  0  0  0  0  0  0  0  0  0
   10.2628   -1.9765    0.0000 H   0  0  0  0  0  0  0  0  0  0  0  0
  1  4  2  0  0  0  0
  1  5  2  0  0  0  0
  1  8  1  0  0  0  0
  1 12  1  0  0  0  0
  2 13  1  0  0  0  0
  2 15  1  0  0  0  0
  3 14  1  0  0  0  0
  3 23  1  0  0  0  0
  6 11  1  0  0  0  0
  7 11  2  0  0  0  0
  8 13  1  0  0  0  0
  8 14  1  0  0  0  0
  9 13  2  0  0  0  0
  9 16  1  0  0  0  0
 10 21  1  0  0  0  0
 10 23  2  0  0  0  0
 11 20  1  0  0  0  0
 12 17  1  0  0  0  0
 12 24  1  0  0  0  0
 12 25  1  0  0  0  0
 14 21  2  0  0  0  0
 15 16  2  0  0  0  0
 15 18  1  0  0  0  0
 16 19  1  0  0  0  0
 17 26  1  0  0  0  0
 17 27  1  0  0  0  0
 17 28  1  0  0  0  0
 18 20  2  0  0  0  0
 18 29  1  0  0  0  0
 19 22  2  0  0  0  0
 19 30  1  0  0  0  0
 20 22  1  0  0  0  0
 21 31  1  0  0  0  0
 22 32  1  0  0  0  0
 23 33  1  0  0  0  0
M  CHG  2   6  -1  11   1
M  END
> <PUBCHEM_COMPOUND_CID>
138825581

> <PUBCHEM_COMPOUND_CANONICALIZED>
1

> <PUBCHEM_CACTVS_COMPLEXITY>
550

> <PUBCHEM_CACTVS_HBOND_ACCEPTOR>
9

> <PUBCHEM_CACTVS_HBOND_DONOR>
0

> <PUBCHEM_CACTVS_ROTATABLE_BOND>
4

> <PUBCHEM_CACTVS_SUBSKEYS>
AAADccBzuABgAAAAAAAAAAAAAAAAAWLAAAAwAAAAAAAAAFgB/AAAHAQEQAAACAjFVgS/0bIYUAqlATRnZ3DD8KlxGjhp2Dw4dJqIYKLgmZGUIAxogAJIyCcQAAAAAACAACAAAQAAAQAAQAACAAAAAAAAAA==

> <PUBCHEM_IUPAC_OPENEYE_NAME>
N-(6-nitro-1,3-benzothiazol-2-yl)-N-thiazol-5-yl-ethanesulfonamide

> <PUBCHEM_IUPAC_CAS_NAME>
N-(6-nitro-1,3-benzothiazol-2-yl)-N-(5-thiazolyl)ethanesulfonamide

> <PUBCHEM_IUPAC_NAME_MARKUP>
<I>N</I>-(6-nitro-1,3-benzothiazol-2-yl)-<I>N</I>-(1,3-thiazol-5-yl)ethanesulfonamide

> <PUBCHEM_IUPAC_NAME>
N-(6-nitro-1,3-benzothiazol-2-yl)-N-(1,3-thiazol-5-yl)ethanesulfonamide

> <PUBCHEM_IUPAC_SYSTEMATIC_NAME>
N-(6-nitro-1,3-benzothiazol-2-yl)-N-(1,3-thiazol-5-yl)ethanesulfonamide

> <PUBCHEM_IUPAC_TRADITIONAL_NAME>
N-(6-nitro-1,3-benzothiazol-2-yl)-N-thiazol-5-yl-ethanesulfonamide

> <PUBCHEM_IUPAC_INCHI>
InChI=1S/C12H10N4O4S3/c1-2-23(19,20)15(11-6-13-7-21-11)12-14-9-4-3-8(16(17)18)5-10(9)22-12/h3-7H,2H2,1H3

> <PUBCHEM_IUPAC_INCHIKEY>
IURISSSRHLNHPX-UHFFFAOYSA-N

> <PUBCHEM_XLOGP3_AA>
3

> <PUBCHEM_EXACT_MASS>
369.98641833

> <PUBCHEM_MOLECULAR_FORMULA>
C12H10N4O4S3

> <PUBCHEM_MOLECULAR_WEIGHT>
370.4

> <PUBCHEM_OPENEYE_CAN_SMILES>
CCS(=O)(=O)N(C1=CN=CS1)C2=NC3=C(S2)C=C(C=C3)[N+](=O)[O-]

> <PUBCHEM_OPENEYE_ISO_SMILES>
CCS(=O)(=O)N(C1=CN=CS1)C2=NC3=C(S2)C=C(C=C3)[N+](=O)[O-]

> <PUBCHEM_CACTVS_TPSA>
174

> <PUBCHEM_MONOISOTOPIC_WEIGHT>
369.98641833

> <PUBCHEM_TOTAL_CHARGE>
0

> <PUBCHEM_HEAVY_ATOM_COUNT>
23

> <PUBCHEM_ATOM_DEF_STEREO_COUNT>
0

> <PUBCHEM_ATOM_UDEF_STEREO_COUNT>
0

> <PUBCHEM_BOND_DEF_STEREO_COUNT>
0

> <PUBCHEM_BOND_UDEF_STEREO_COUNT>
0

> <PUBCHEM_ISOTOPIC_ATOM_COUNT>
0

> <PUBCHEM_COMPONENT_COUNT>
1

> <PUBCHEM_CACTVS_TAUTO_COUNT>
-1

> <PUBCHEM_COORDINATE_TYPE>
1
5
255

> <PUBCHEM_BONDANNOTATIONS>
10  21  8
10  23  8
14  21  8
15  16  8
15  18  8
16  19  8
18  20  8
19  22  8
2  13  8
2  15  8
20  22  8
3  14  8
3  23  8
9  13  8
9  16  8

$$$$
