 
  -OEChem-10192104422D

 42 43  0     1  0  0  0  0  0999 V2000
    3.8100    1.3146    0.0000 O   0  0  0  0  0  0  0  0  0  0  0  0
    4.6760    3.8146    0.0000 O   0  0  0  0  0  0  0  0  0  0  0  0
    6.4081    2.8146    0.0000 O   0  0  0  0  0  0  0  0  0  0  0  0
    2.8100    2.3146    0.0000 O   0  0  0  0  0  0  0  0  0  0  0  0
    6.4081    0.8146    0.0000 O   0  0  0  0  0  0  0  0  0  0  0  0
    2.3100    3.1806    0.0000 O   0  0  0  0  0  0  0  0  0  0  0  0
    6.3831   -0.8925    0.0000 O   0  0  0  0  0  0  0  0  0  0  0  0
    5.5137   -1.8840    0.0000 O   0  0  0  0  0  0  0  0  0  0  0  0
    2.4689   -1.7586    0.0000 O   0  0  0  0  0  0  0  0  0  0  0  0
    6.8831   -1.7586    0.0000 O   0  0  0  0  0  0  0  0  0  0  0  0
    2.4689   -0.0265    0.0000 O   0  0  0  0  0  0  0  0  0  0  0  0
    2.9689   -2.6246    0.0000 O   0  0  0  0  0  0  0  0  0  0  0  0
    7.1837   -3.2852    0.0000 O   0  0  0  0  0  0  0  0  0  0  0  0
    3.8349   -4.1246    0.0000 O   0  0  0  0  0  0  0  0  0  0  0  0
    4.6760    2.8146    0.0000 C   0  0  1  0  0  0  0  0  0  0  0  0
    5.5420    2.3146    0.0000 C   0  0  1  0  0  0  0  0  0  0  0  0
    3.8100    2.3146    0.0000 C   0  0  2  0  0  0  0  0  0  0  0  0
    5.5420    1.3146    0.0000 C   0  0  1  0  0  0  0  0  0  0  0  0
    4.6760    0.8146    0.0000 C   0  0  3  0  0  0  0  0  0  0  0  0
    3.3100    3.1806    0.0000 C   0  0  0  0  0  0  0  0  0  0  0  0
    4.6760   -0.1854    0.0000 C   0  0  0  0  0  0  0  0  0  0  0  0
    3.9689   -0.8925    0.0000 C   0  0  0  0  0  0  0  0  0  0  0  0
    5.3831   -0.8925    0.0000 C   0  0  0  0  0  0  0  0  0  0  0  0
    2.9689   -0.8925    0.0000 C   0  0  0  0  0  0  0  0  0  0  0  0
    6.4330   -2.6246    0.0000 C   0  0  0  0  0  0  0  0  0  0  0  0
    5.5670   -3.1246    0.0000 C   0  0  0  0  0  0  0  0  0  0  0  0
    3.8349   -3.1246    0.0000 C   0  0  0  0  0  0  0  0  0  0  0  0
    4.7010   -2.6246    0.0000 C   0  0  0  0  0  0  0  0  0  0  0  0
    5.2130    3.1246    0.0000 H   0  0  0  0  0  0  0  0  0  0  0  0
    6.0790    2.0046    0.0000 H   0  0  0  0  0  0  0  0  0  0  0  0
    5.5420    0.6946    0.0000 H   0  0  0  0  0  0  0  0  0  0  0  0
    4.1391    0.5046    0.0000 H   0  0  0  0  0  0  0  0  0  0  0  0
    3.8926    3.3927    0.0000 H   0  0  0  0  0  0  0  0  0  0  0  0
    3.2023    3.7912    0.0000 H   0  0  0  0  0  0  0  0  0  0  0  0
    5.2130    4.1246    0.0000 H   0  0  0  0  0  0  0  0  0  0  0  0
    6.4081    3.4346    0.0000 H   0  0  0  0  0  0  0  0  0  0  0  0
    2.5000    1.7776    0.0000 H   0  0  0  0  0  0  0  0  0  0  0  0
    6.9450    1.1246    0.0000 H   0  0  0  0  0  0  0  0  0  0  0  0
    4.2062   -1.4653    0.0000 H   0  0  0  0  0  0  0  0  0  0  0  0
    2.0000    3.7175    0.0000 H   0  0  0  0  0  0  0  0  0  0  0  0
    5.5670   -3.7446    0.0000 H   0  0  0  0  0  0  0  0  0  0  0  0
    4.7010   -2.0046    0.0000 H   0  0  0  0  0  0  0  0  0  0  0  0
  1 17  1  0  0  0  0
  1 19  1  0  0  0  0
 15  2  1  1  0  0  0
  2 35  1  0  0  0  0
 16  3  1  6  0  0  0
  3 36  1  0  0  0  0
 17  4  1  6  0  0  0
  4 37  1  0  0  0  0
 18  5  1  6  0  0  0
  5 38  1  0  0  0  0
  6 20  1  0  0  0  0
  6 40  1  0  0  0  0
  7 10  1  0  0  0  0
  7 23  1  0  0  0  0
  8 23  2  0  0  0  0
  9 12  1  0  0  0  0
  9 24  1  0  0  0  0
 10 25  1  0  0  0  0
 11 24  2  0  0  0  0
 12 27  1  0  0  0  0
 13 25  2  0  0  0  0
 14 27  2  0  0  0  0
 15 16  1  0  0  0  0
 15 17  1  0  0  0  0
 15 29  1  0  0  0  0
 16 18  1  0  0  0  0
 16 30  1  0  0  0  0
 17 20  1  0  0  0  0
 18 19  1  0  0  0  0
 18 31  1  0  0  0  0
 19 21  1  0  0  0  0
 19 32  1  0  0  0  0
 20 33  1  0  0  0  0
 20 34  1  0  0  0  0
 21 22  2  0  0  0  0
 21 23  1  0  0  0  0
 22 24  1  0  0  0  0
 22 39  1  0  0  0  0
 25 26  1  0  0  0  0
 26 28  2  0  0  0  0
 26 41  1  0  0  0  0
 27 28  1  0  0  0  0
 28 42  1  0  0  0  0
M  END
> <PUBCHEM_COMPOUND_CID>
129720095

> <PUBCHEM_COMPOUND_CANONICALIZED>
1

> <PUBCHEM_CACTVS_COMPLEXITY>
726

> <PUBCHEM_CACTVS_HBOND_ACCEPTOR>
14

> <PUBCHEM_CACTVS_HBOND_DONOR>
5

> <PUBCHEM_CACTVS_ROTATABLE_BOND>
2

> <PUBCHEM_CACTVS_SUBSKEYS>
AAADccBwPAAAAAAAAAAAAAAAAAAAAAAAAAAkAAAAAAAAAAAAAAAAGgAADAAADBSggAIACAAABgCIAiDSCAAAAAAgAAAICAEAAEgRFBYAIQACUAAF4AAPIYPK7KTAAAAAAAAAAAAAAAAAAAAAAAAAAAAAAA==

> <PUBCHEM_IUPAC_OPENEYE_NAME>
(4E,10E)-4-[(3S,4R,5S,6S)-3,4,5,6-tetrahydroxy-6-(hydroxymethyl)tetrahydropyran-2-yl]-1,2,7,8-tetraoxacyclododeca-4,10-diene-3,6,9,12-tetrone

> <PUBCHEM_IUPAC_CAS_NAME>
(4E,10E)-4-[(3S,4R,5S,6S)-3,4,5,6-tetrahydroxy-6-(hydroxymethyl)-2-oxanyl]-1,2,7,8-tetraoxacyclododeca-4,10-diene-3,6,9,12-tetrone

> <PUBCHEM_IUPAC_NAME_MARKUP>
(4<I>E</I>,10<I>E</I>)-4-[(3<I>S</I>,4<I>R</I>,5<I>S</I>,6<I>S</I>)-3,4,5,6-tetrahydroxy-6-(hydroxymethyl)oxan-2-yl]-1,2,7,8-tetraoxacyclododeca-4,10-diene-3,6,9,12-tetrone

> <PUBCHEM_IUPAC_NAME>
(4E,10E)-4-[(3S,4R,5S,6S)-3,4,5,6-tetrahydroxy-6-(hydroxymethyl)oxan-2-yl]-1,2,7,8-tetraoxacyclododeca-4,10-diene-3,6,9,12-tetrone

> <PUBCHEM_IUPAC_SYSTEMATIC_NAME>
(4E,10E)-4-[(3S,4R,5S,6S)-6-(hydroxymethyl)-3,4,5,6-tetrakis(oxidanyl)oxan-2-yl]-1,2,7,8-tetraoxacyclododeca-4,10-diene-3,6,9,12-tetrone

> <PUBCHEM_IUPAC_TRADITIONAL_NAME>
(4E,10E)-4-[(3S,4R,5S,6S)-3,4,5,6-tetrahydroxy-6-methylol-tetrahydropyran-2-yl]-1,2,7,8-tetraoxacyclododeca-4,10-diene-3,6,9,12-diquinone

> <PUBCHEM_IUPAC_INCHI>
InChI=1S/C14H14O14/c15-4-14(23)12(21)10(20)9(19)11(24-14)5-3-8(18)27-25-6(16)1-2-7(17)26-28-13(5)22/h1-3,9-12,15,19-21,23H,4H2/b2-1+,5-3+/t9-,10+,11?,12-,14-/m0/s1

> <PUBCHEM_IUPAC_INCHIKEY>
XOAGNPJOGUOHCS-JUUSQBMVSA-N

> <PUBCHEM_XLOGP3_AA>
-2.9

> <PUBCHEM_EXACT_MASS>
406.03835512

> <PUBCHEM_MOLECULAR_FORMULA>
C14H14O14

> <PUBCHEM_MOLECULAR_WEIGHT>
406.25

> <PUBCHEM_OPENEYE_CAN_SMILES>
C1=CC(=O)OOC(=O)C(=CC(=O)OOC1=O)C2C(C(C(C(O2)(CO)O)O)O)O

> <PUBCHEM_OPENEYE_ISO_SMILES>
C\1=C/C(=O)OOC(=O)/C(=C/C(=O)OOC1=O)/C2[C@H]([C@H]([C@@H]([C@@](O2)(CO)O)O)O)O

> <PUBCHEM_CACTVS_TPSA>
216

> <PUBCHEM_MONOISOTOPIC_WEIGHT>
406.03835512

> <PUBCHEM_TOTAL_CHARGE>
0

> <PUBCHEM_HEAVY_ATOM_COUNT>
28

> <PUBCHEM_ATOM_DEF_STEREO_COUNT>
4

> <PUBCHEM_ATOM_UDEF_STEREO_COUNT>
1

> <PUBCHEM_BOND_DEF_STEREO_COUNT>
2

> <PUBCHEM_BOND_UDEF_STEREO_COUNT>
0

> <PUBCHEM_ISOTOPIC_ATOM_COUNT>
0

> <PUBCHEM_COMPONENT_COUNT>
1

> <PUBCHEM_CACTVS_TAUTO_COUNT>
-1

> <PUBCHEM_COORDINATE_TYPE>
1
5
255

> <PUBCHEM_BONDANNOTATIONS>
19  21  3
15  2  5
16  3  6
17  4  6
18  5  6

$$$$
