 
  -OEChem-10192103552D

 65 67  0     1  0  0  0  0  0999 V2000
    6.3301   -0.9650    0.0000 S   0  0  0  0  0  0  0  0  0  0  0  0
   10.2436    4.0534    0.0000 P   0  0  0  0  0  0  0  0  0  0  0  0
    9.5987    0.6002    0.0000 O   0  0  0  0  0  0  0  0  0  0  0  0
   11.9447   -0.4916    0.0000 O   0  0  0  0  0  0  0  0  0  0  0  0
   11.9484    1.6840    0.0000 O   0  0  0  0  0  0  0  0  0  0  0  0
   10.5509    3.1018    0.0000 O   0  0  0  0  0  0  0  0  0  0  0  0
    9.9362    5.0050    0.0000 O   0  0  0  0  0  0  0  0  0  0  0  0
   11.1951    4.3608    0.0000 O   0  0  0  0  0  0  0  0  0  0  0  0
    9.2920    3.7460    0.0000 O   0  0  0  0  0  0  0  0  0  0  0  0
    9.8744   -1.1603    0.0000 N   0  0  0  0  0  0  0  0  0  0  0  0
    9.8744   -2.7698    0.0000 N   0  0  0  0  0  0  0  0  0  0  0  0
    8.0622   -0.9650    0.0000 N   0  0  0  0  0  0  0  0  0  0  0  0
    8.0622   -3.9650    0.0000 N   0  0  0  0  0  0  0  0  0  0  0  0
    7.1962   -2.4650    0.0000 N   0  0  0  0  0  0  0  0  0  0  0  0
   11.1367    0.0976    0.0000 C   0  0  1  0  0  0  0  0  0  0  0  0
   10.1851   -0.2098    0.0000 C   0  0  1  0  0  0  0  0  0  0  0  0
   11.1384    1.0976    0.0000 C   0  0  1  0  0  0  0  0  0  0  0  0
   10.1879    1.4082    0.0000 C   0  0  1  0  0  0  0  0  0  0  0  0
    9.8805    2.3598    0.0000 C   0  0  0  0  0  0  0  0  0  0  0  0
    8.9282   -1.4650    0.0000 C   0  0  0  0  0  0  0  0  0  0  0  0
   10.4580   -1.9650    0.0000 C   0  0  0  0  0  0  0  0  0  0  0  0
    8.9282   -2.4650    0.0000 C   0  0  0  0  0  0  0  0  0  0  0  0
    8.0622   -2.9650    0.0000 C   0  0  0  0  0  0  0  0  0  0  0  0
    7.1962   -1.4650    0.0000 C   0  0  0  0  0  0  0  0  0  0  0  0
    7.1962   -4.4650    0.0000 C   0  0  0  0  0  0  0  0  0  0  0  0
    8.9282   -4.4650    0.0000 C   0  0  0  0  0  0  0  0  0  0  0  0
    5.4641   -1.4650    0.0000 C   0  0  0  0  0  0  0  0  0  0  0  0
    4.5981   -0.9650    0.0000 C   0  0  0  0  0  0  0  0  0  0  0  0
    7.1962   -5.4650    0.0000 C   0  0  0  0  0  0  0  0  0  0  0  0
    8.9282   -5.4650    0.0000 C   0  0  0  0  0  0  0  0  0  0  0  0
    3.7320   -1.4650    0.0000 C   0  0  0  0  0  0  0  0  0  0  0  0
    2.8660   -0.9650    0.0000 C   0  0  0  0  0  0  0  0  0  0  0  0
    2.0000   -1.4650    0.0000 C   0  0  0  0  0  0  0  0  0  0  0  0
   11.0386   -0.5146    0.0000 H   0  0  0  0  0  0  0  0  0  0  0  0
   10.6227   -0.6489    0.0000 H   0  0  0  0  0  0  0  0  0  0  0  0
   11.6903    0.8152    0.0000 H   0  0  0  0  0  0  0  0  0  0  0  0
    9.5757    1.5063    0.0000 H   0  0  0  0  0  0  0  0  0  0  0  0
    9.4997    2.8491    0.0000 H   0  0  0  0  0  0  0  0  0  0  0  0
    9.3326    2.0697    0.0000 H   0  0  0  0  0  0  0  0  0  0  0  0
   12.5115   -0.2404    0.0000 H   0  0  0  0  0  0  0  0  0  0  0  0
   12.5144    1.4308    0.0000 H   0  0  0  0  0  0  0  0  0  0  0  0
   11.0780   -1.9650    0.0000 H   0  0  0  0  0  0  0  0  0  0  0  0
    6.9841   -3.8824    0.0000 H   0  0  0  0  0  0  0  0  0  0  0  0
    6.5856   -4.5727    0.0000 H   0  0  0  0  0  0  0  0  0  0  0  0
    9.5388   -4.5727    0.0000 H   0  0  0  0  0  0  0  0  0  0  0  0
    9.1403   -3.8824    0.0000 H   0  0  0  0  0  0  0  0  0  0  0  0
    5.0656   -1.9400    0.0000 H   0  0  0  0  0  0  0  0  0  0  0  0
    5.8626   -1.9400    0.0000 H   0  0  0  0  0  0  0  0  0  0  0  0
    4.9966   -0.4901    0.0000 H   0  0  0  0  0  0  0  0  0  0  0  0
    4.1996   -0.4901    0.0000 H   0  0  0  0  0  0  0  0  0  0  0  0
    6.5762   -5.4650    0.0000 H   0  0  0  0  0  0  0  0  0  0  0  0
    7.1962   -6.0850    0.0000 H   0  0  0  0  0  0  0  0  0  0  0  0
    7.8162   -5.4650    0.0000 H   0  0  0  0  0  0  0  0  0  0  0  0
    8.3082   -5.4650    0.0000 H   0  0  0  0  0  0  0  0  0  0  0  0
    8.9282   -6.0850    0.0000 H   0  0  0  0  0  0  0  0  0  0  0  0
    9.5482   -5.4650    0.0000 H   0  0  0  0  0  0  0  0  0  0  0  0
    3.3335   -1.9400    0.0000 H   0  0  0  0  0  0  0  0  0  0  0  0
    4.1306   -1.9400    0.0000 H   0  0  0  0  0  0  0  0  0  0  0  0
   10.3518    5.4650    0.0000 H   0  0  0  0  0  0  0  0  0  0  0  0
   11.3251    4.9670    0.0000 H   0  0  0  0  0  0  0  0  0  0  0  0
    3.2646   -0.4901    0.0000 H   0  0  0  0  0  0  0  0  0  0  0  0
    2.4675   -0.4901    0.0000 H   0  0  0  0  0  0  0  0  0  0  0  0
    1.6900   -0.9281    0.0000 H   0  0  0  0  0  0  0  0  0  0  0  0
    1.4631   -1.7750    0.0000 H   0  0  0  0  0  0  0  0  0  0  0  0
    2.3100   -2.0020    0.0000 H   0  0  0  0  0  0  0  0  0  0  0  0
  1 24  1  0  0  0  0
  1 27  1  0  0  0  0
  2  6  1  0  0  0  0
  2  7  1  0  0  0  0
  2  8  1  0  0  0  0
  2  9  2  0  0  0  0
  3 16  1  0  0  0  0
  3 18  1  0  0  0  0
 15  4  1  1  0  0  0
  4 40  1  0  0  0  0
 17  5  1  1  0  0  0
  5 41  1  0  0  0  0
  6 19  1  0  0  0  0
  7 59  1  0  0  0  0
  8 60  1  0  0  0  0
 16 10  1  6  0  0  0
 10 20  1  0  0  0  0
 10 21  1  0  0  0  0
 11 21  2  0  0  0  0
 11 22  1  0  0  0  0
 12 20  1  0  0  0  0
 12 24  2  0  0  0  0
 13 23  1  0  0  0  0
 13 25  1  0  0  0  0
 13 26  1  0  0  0  0
 14 23  2  0  0  0  0
 14 24  1  0  0  0  0
 15 16  1  0  0  0  0
 15 17  1  0  0  0  0
 15 34  1  0  0  0  0
 16 35  1  0  0  0  0
 17 18  1  0  0  0  0
 17 36  1  0  0  0  0
 18 19  1  6  0  0  0
 18 37  1  0  0  0  0
 19 38  1  0  0  0  0
 19 39  1  0  0  0  0
 20 22  2  0  0  0  0
 21 42  1  0  0  0  0
 22 23  1  0  0  0  0
 25 29  1  0  0  0  0
 25 43  1  0  0  0  0
 25 44  1  0  0  0  0
 26 30  1  0  0  0  0
 26 45  1  0  0  0  0
 26 46  1  0  0  0  0
 27 28  1  0  0  0  0
 27 47  1  0  0  0  0
 27 48  1  0  0  0  0
 28 31  1  0  0  0  0
 28 49  1  0  0  0  0
 28 50  1  0  0  0  0
 29 51  1  0  0  0  0
 29 52  1  0  0  0  0
 29 53  1  0  0  0  0
 30 54  1  0  0  0  0
 30 55  1  0  0  0  0
 30 56  1  0  0  0  0
 31 32  1  0  0  0  0
 31 57  1  0  0  0  0
 31 58  1  0  0  0  0
 32 33  1  0  0  0  0
 32 61  1  0  0  0  0
 32 62  1  0  0  0  0
 33 63  1  0  0  0  0
 33 64  1  0  0  0  0
 33 65  1  0  0  0  0
M  END
> <PUBCHEM_COMPOUND_CID>
10097671

> <PUBCHEM_COMPOUND_CANONICALIZED>
1

> <PUBCHEM_CACTVS_COMPLEXITY>
660

> <PUBCHEM_CACTVS_HBOND_ACCEPTOR>
12

> <PUBCHEM_CACTVS_HBOND_DONOR>
4

> <PUBCHEM_CACTVS_ROTATABLE_BOND>
12

> <PUBCHEM_CACTVS_SUBSKEYS>
AAADcfB7uAJAAAAAAAAAAAAAAAAAAWJAAAAsAAAAAAAAAFgB+AAAHgQACCAACBzl1waH8L8MFxigQQZhZICA0C1RELABUCAoVBCDWAJgyEAeRAgPAALTACDwMAIAAAAAAAAAAAAAAAAAAAAAAAAAAAAAAA==

> <PUBCHEM_IUPAC_OPENEYE_NAME>
[(2R,3S,4R,5R)-5-[6-(diethylamino)-2-pentylsulfanyl-purin-9-yl]-3,4-dihydroxy-tetrahydrofuran-2-yl]methyl dihydrogen phosphate

> <PUBCHEM_IUPAC_CAS_NAME>
[(2R,3S,4R,5R)-5-[6-(diethylamino)-2-(pentylthio)-9-purinyl]-3,4-dihydroxy-2-oxolanyl]methyl dihydrogen phosphate

> <PUBCHEM_IUPAC_NAME_MARKUP>
[(2<I>R</I>,3<I>S</I>,4<I>R</I>,5<I>R</I>)-5-[6-(diethylamino)-2-pentylsulfanylpurin-9-yl]-3,4-dihydroxyoxolan-2-yl]methyl dihydrogen phosphate

> <PUBCHEM_IUPAC_NAME>
[(2R,3S,4R,5R)-5-[6-(diethylamino)-2-pentylsulfanylpurin-9-yl]-3,4-dihydroxyoxolan-2-yl]methyl dihydrogen phosphate

> <PUBCHEM_IUPAC_SYSTEMATIC_NAME>
[(2R,3S,4R,5R)-5-[6-(diethylamino)-2-pentylsulfanyl-purin-9-yl]-3,4-bis(oxidanyl)oxolan-2-yl]methyl dihydrogen phosphate

> <PUBCHEM_IUPAC_TRADITIONAL_NAME>
[(2R,3S,4R,5R)-5-[2-(amylthio)-6-(diethylamino)purin-9-yl]-3,4-dihydroxy-tetrahydrofuran-2-yl]methyl dihydrogen phosphate

> <PUBCHEM_IUPAC_INCHI>
InChI=1S/C19H32N5O7PS/c1-4-7-8-9-33-19-21-16(23(5-2)6-3)13-17(22-19)24(11-20-13)18-15(26)14(25)12(31-18)10-30-32(27,28)29/h11-12,14-15,18,25-26H,4-10H2,1-3H3,(H2,27,28,29)/t12-,14-,15-,18-/m1/s1

> <PUBCHEM_IUPAC_INCHIKEY>
CSGQWSNROCLOQC-SCFUHWHPSA-N

> <PUBCHEM_XLOGP3>
0.7

> <PUBCHEM_EXACT_MASS>
505.17600655

> <PUBCHEM_MOLECULAR_FORMULA>
C19H32N5O7PS

> <PUBCHEM_MOLECULAR_WEIGHT>
505.5

> <PUBCHEM_OPENEYE_CAN_SMILES>
CCCCCSC1=NC2=C(C(=N1)N(CC)CC)N=CN2C3C(C(C(O3)COP(=O)(O)O)O)O

> <PUBCHEM_OPENEYE_ISO_SMILES>
CCCCCSC1=NC2=C(C(=N1)N(CC)CC)N=CN2[C@H]3[C@@H]([C@@H]([C@H](O3)COP(=O)(O)O)O)O

> <PUBCHEM_CACTVS_TPSA>
189

> <PUBCHEM_MONOISOTOPIC_WEIGHT>
505.17600655

> <PUBCHEM_TOTAL_CHARGE>
0

> <PUBCHEM_HEAVY_ATOM_COUNT>
33

> <PUBCHEM_ATOM_DEF_STEREO_COUNT>
4

> <PUBCHEM_ATOM_UDEF_STEREO_COUNT>
0

> <PUBCHEM_BOND_DEF_STEREO_COUNT>
0

> <PUBCHEM_BOND_UDEF_STEREO_COUNT>
0

> <PUBCHEM_ISOTOPIC_ATOM_COUNT>
0

> <PUBCHEM_COMPONENT_COUNT>
1

> <PUBCHEM_CACTVS_TAUTO_COUNT>
-1

> <PUBCHEM_COORDINATE_TYPE>
1
5
255

> <PUBCHEM_BONDANNOTATIONS>
16  10  6
10  20  8
10  21  8
11  21  8
11  22  8
12  20  8
12  24  8
14  23  8
14  24  8
18  19  6
20  22  8
22  23  8
15  4  5
17  5  5

$$$$
