 
  -OEChem-10192104272D

 50 49  0     1  0  0  0  0  0999 V2000
   12.3923    0.6900    0.0000 O   0  0  0  0  0  0  0  0  0  0  0  0
   14.9904    2.1900    0.0000 O   0  0  0  0  0  0  0  0  0  0  0  0
   15.8564   -0.3100    0.0000 O   0  0  0  0  0  0  0  0  0  0  0  0
   14.1244   -0.3100    0.0000 O   0  0  0  0  0  0  0  0  0  0  0  0
   13.2583    2.1900    0.0000 O   0  0  0  0  0  0  0  0  0  0  0  0
   17.5885    0.6900    0.0000 O   0  0  0  0  0  0  0  0  0  0  0  0
   10.6603    2.6900    0.0000 O   0  0  0  0  0  0  0  0  0  0  0  0
   14.9904    1.1900    0.0000 C   0  0  1  0  0  0  0  0  0  0  0  0
   14.1244    0.6900    0.0000 C   0  0  3  0  0  0  0  0  0  0  0  0
   15.8564    0.6900    0.0000 C   0  0  3  0  0  0  0  0  0  0  0  0
   13.2583    1.1900    0.0000 C   0  0  3  0  0  0  0  0  0  0  0  0
   11.5263    1.1900    0.0000 C   0  0  3  0  0  0  0  0  0  0  0  0
   16.7224    1.1900    0.0000 C   0  0  0  0  0  0  0  0  0  0  0  0
   10.6603    0.6900    0.0000 C   0  0  0  0  0  0  0  0  0  0  0  0
   11.5263    2.1900    0.0000 C   0  0  0  0  0  0  0  0  0  0  0  0
    9.7942    1.1900    0.0000 C   0  0  0  0  0  0  0  0  0  0  0  0
   16.7224   -0.8100    0.0000 C   0  0  0  0  0  0  0  0  0  0  0  0
    8.9282    0.6900    0.0000 C   0  0  0  0  0  0  0  0  0  0  0  0
    8.0622    0.1900    0.0000 C   0  0  0  0  0  0  0  0  0  0  0  0
    7.1962   -0.3100    0.0000 C   0  0  0  0  0  0  0  0  0  0  0  0
    6.3301   -0.8100    0.0000 C   0  0  0  0  0  0  0  0  0  0  0  0
    5.4641   -1.3100    0.0000 C   0  0  0  0  0  0  0  0  0  0  0  0
    4.5981   -1.8100    0.0000 C   0  0  0  0  0  0  0  0  0  0  0  0
    3.7320   -2.3100    0.0000 C   0  0  0  0  0  0  0  0  0  0  0  0
    2.8660   -2.8100    0.0000 C   0  0  0  0  0  0  0  0  0  0  0  0
    2.0000   -3.3100    0.0000 C   0  0  0  0  0  0  0  0  0  0  0  0
   15.5273    1.5000    0.0000 H   0  0  0  0  0  0  0  0  0  0  0  0
   13.5874    0.3800    0.0000 H   0  0  0  0  0  0  0  0  0  0  0  0
   15.3195    0.3800    0.0000 H   0  0  0  0  0  0  0  0  0  0  0  0
   13.7953    1.5000    0.0000 H   0  0  0  0  0  0  0  0  0  0  0  0
   12.0632    1.5000    0.0000 H   0  0  0  0  0  0  0  0  0  0  0  0
   10.2617    0.2151    0.0000 H   0  0  0  0  0  0  0  0  0  0  0  0
   11.0588    0.2151    0.0000 H   0  0  0  0  0  0  0  0  0  0  0  0
   17.1210    1.6650    0.0000 H   0  0  0  0  0  0  0  0  0  0  0  0
   16.3239    1.6650    0.0000 H   0  0  0  0  0  0  0  0  0  0  0  0
   12.1369    2.0823    0.0000 H   0  0  0  0  0  0  0  0  0  0  0  0
   11.7383    2.7726    0.0000 H   0  0  0  0  0  0  0  0  0  0  0  0
   15.5273    2.5000    0.0000 H   0  0  0  0  0  0  0  0  0  0  0  0
   13.5874   -0.6200    0.0000 H   0  0  0  0  0  0  0  0  0  0  0  0
   10.1928    1.6650    0.0000 H   0  0  0  0  0  0  0  0  0  0  0  0
    9.3957    1.6650    0.0000 H   0  0  0  0  0  0  0  0  0  0  0  0
   12.7214    2.5000    0.0000 H   0  0  0  0  0  0  0  0  0  0  0  0
   16.4124   -1.3469    0.0000 H   0  0  0  0  0  0  0  0  0  0  0  0
   17.2594   -1.1200    0.0000 H   0  0  0  0  0  0  0  0  0  0  0  0
   17.0324   -0.2731    0.0000 H   0  0  0  0  0  0  0  0  0  0  0  0
   18.1254    1.0000    0.0000 H   0  0  0  0  0  0  0  0  0  0  0  0
   10.6603    3.3100    0.0000 H   0  0  0  0  0  0  0  0  0  0  0  0
    1.6900   -2.7731    0.0000 H   0  0  0  0  0  0  0  0  0  0  0  0
    1.4631   -3.6200    0.0000 H   0  0  0  0  0  0  0  0  0  0  0  0
    2.3100   -3.8469    0.0000 H   0  0  0  0  0  0  0  0  0  0  0  0
  1 11  1  0  0  0  0
  1 12  1  0  0  0  0
  8  2  1  6  0  0  0
  2 38  1  0  0  0  0
  3 10  1  0  0  0  0
  3 17  1  0  0  0  0
  4  9  1  0  0  0  0
  4 39  1  0  0  0  0
  5 11  1  0  0  0  0
  5 42  1  0  0  0  0
  6 13  1  0  0  0  0
  6 46  1  0  0  0  0
  7 15  1  0  0  0  0
  7 47  1  0  0  0  0
  8  9  1  0  0  0  0
  8 10  1  0  0  0  0
  8 27  1  0  0  0  0
  9 11  1  0  0  0  0
  9 28  1  0  0  0  0
 10 13  1  0  0  0  0
 10 29  1  0  0  0  0
 11 30  1  0  0  0  0
 12 14  1  0  0  0  0
 12 15  1  0  0  0  0
 12 31  1  0  0  0  0
 13 34  1  0  0  0  0
 13 35  1  0  0  0  0
 14 16  1  0  0  0  0
 14 32  1  0  0  0  0
 14 33  1  0  0  0  0
 15 36  1  0  0  0  0
 15 37  1  0  0  0  0
 16 18  1  0  0  0  0
 16 40  1  0  0  0  0
 16 41  1  0  0  0  0
 17 43  1  0  0  0  0
 17 44  1  0  0  0  0
 17 45  1  0  0  0  0
 18 19  3  0  0  0  0
 19 20  1  0  0  0  0
 20 21  3  0  0  0  0
 21 22  1  0  0  0  0
 22 23  3  0  0  0  0
 23 24  1  0  0  0  0
 24 25  3  0  0  0  0
 25 26  1  0  0  0  0
 26 48  1  0  0  0  0
 26 49  1  0  0  0  0
 26 50  1  0  0  0  0
M  END
> <PUBCHEM_COMPOUND_CID>
88555108

> <PUBCHEM_COMPOUND_CANONICALIZED>
1

> <PUBCHEM_CACTVS_COMPLEXITY>
675

> <PUBCHEM_CACTVS_HBOND_ACCEPTOR>
7

> <PUBCHEM_CACTVS_HBOND_DONOR>
5

> <PUBCHEM_CACTVS_ROTATABLE_BOND>
13

> <PUBCHEM_CACTVS_SUBSKEYS>
AAADceB4OAAAAAAAAAAAAAAAAAAAAAAAAAAAAAAAAAAAAAAAAAAAGgAACAAACBSwgAMCCAAABgBAEAAAAAgAAAAAAAAAAAAAAAAREAIAAAACQAAFAAAHAADAIAgAAAAAAAAAAAAAAAAAAAAAAAAAAAAAAA==

> <PUBCHEM_IUPAC_OPENEYE_NAME>
(3S)-1-[1-(hydroxymethyl)dodeca-4,6,8,10-tetraynoxy]-4-methoxy-pentane-1,2,3,5-tetrol

> <PUBCHEM_IUPAC_CAS_NAME>
(3S)-1-(1-hydroxytrideca-5,7,9,11-tetrayn-2-yloxy)-4-methoxypentane-1,2,3,5-tetrol

> <PUBCHEM_IUPAC_NAME_MARKUP>
(3<I>S</I>)-1-(1-hydroxytrideca-5,7,9,11-tetrayn-2-yloxy)-4-methoxypentane-1,2,3,5-tetrol

> <PUBCHEM_IUPAC_NAME>
(3S)-1-(1-hydroxytrideca-5,7,9,11-tetrayn-2-yloxy)-4-methoxypentane-1,2,3,5-tetrol

> <PUBCHEM_IUPAC_SYSTEMATIC_NAME>
(3S)-4-methoxy-1-(1-oxidanyltrideca-5,7,9,11-tetrayn-2-yloxy)pentane-1,2,3,5-tetrol

> <PUBCHEM_IUPAC_TRADITIONAL_NAME>
(3S)-4-methoxy-1-(1-methyloldodeca-4,6,8,10-tetraynoxy)pentane-1,2,3,5-tetrol

> <PUBCHEM_IUPAC_INCHI>
InChI=1S/C19H24O7/c1-3-4-5-6-7-8-9-10-11-12-15(13-20)26-19(24)18(23)17(22)16(14-21)25-2/h15-24H,11-14H2,1-2H3/t15?,16?,17-,18?,19?/m1/s1

> <PUBCHEM_IUPAC_INCHIKEY>
UFHYTPUGWLBOQU-DBMMPTTLSA-N

> <PUBCHEM_XLOGP3_AA>
-0.4

> <PUBCHEM_EXACT_MASS>
364.15220310

> <PUBCHEM_MOLECULAR_FORMULA>
C19H24O7

> <PUBCHEM_MOLECULAR_WEIGHT>
364.4

> <PUBCHEM_OPENEYE_CAN_SMILES>
CC#CC#CC#CC#CCCC(CO)OC(C(C(C(CO)OC)O)O)O

> <PUBCHEM_OPENEYE_ISO_SMILES>
CC#CC#CC#CC#CCCC(CO)OC(C([C@@H](C(CO)OC)O)O)O

> <PUBCHEM_CACTVS_TPSA>
120

> <PUBCHEM_MONOISOTOPIC_WEIGHT>
364.15220310

> <PUBCHEM_TOTAL_CHARGE>
0

> <PUBCHEM_HEAVY_ATOM_COUNT>
26

> <PUBCHEM_ATOM_DEF_STEREO_COUNT>
1

> <PUBCHEM_ATOM_UDEF_STEREO_COUNT>
4

> <PUBCHEM_BOND_DEF_STEREO_COUNT>
0

> <PUBCHEM_BOND_UDEF_STEREO_COUNT>
0

> <PUBCHEM_ISOTOPIC_ATOM_COUNT>
0

> <PUBCHEM_COMPONENT_COUNT>
1

> <PUBCHEM_CACTVS_TAUTO_COUNT>
-1

> <PUBCHEM_COORDINATE_TYPE>
1
5
255

> <PUBCHEM_BONDANNOTATIONS>
10  13  3
12  14  3
8  2  6
9  4  3
11  5  3

$$$$
