 
  -OEChem-10192103332D

 87 91  0     1  0  0  0  0  0999 V2000
    3.3808   -0.4338    0.0000 O   0  0  0  0  0  0  0  0  0  0  0  0
    2.5163   -0.9969    0.0000 O   0  0  0  0  0  0  0  0  0  0  0  0
    5.5493   -5.4826    0.0000 O   0  0  0  0  0  0  0  0  0  0  0  0
    7.8271    4.4969    0.0000 O   0  0  0  0  0  0  0  0  0  0  0  0
    3.0584   -4.9851    0.0000 O   0  0  0  0  0  0  0  0  0  0  0  0
    5.3670    5.1295    0.0000 O   0  0  0  0  0  0  0  0  0  0  0  0
    7.0990    5.1362    0.0000 O   0  0  0  0  0  0  0  0  0  0  0  0
    5.6827    0.8890    0.0000 C   0  0  1  0  0  0  0  0  0  0  0  0
    4.6827    0.8890    0.0000 C   0  0  2  0  0  0  0  0  0  0  0  0
    5.1827   -1.3016    0.0000 C   0  0  2  0  0  0  0  0  0  0  0  0
    6.2174    1.7830    0.0000 C   0  0  2  0  0  0  0  0  0  0  0  0
    5.2766   -2.3390    0.0000 C   0  0  2  0  0  0  0  0  0  0  0  0
    4.2817   -0.8677    0.0000 C   0  0  1  0  0  0  0  0  0  0  0  0
    4.4205   -2.9324    0.0000 C   0  0  2  0  0  0  0  0  0  0  0  0
    5.7035    2.6890    0.0000 C   0  0  1  0  0  0  0  0  0  0  0  0
    4.0592    0.1072    0.0000 C   0  0  0  0  0  0  0  0  0  0  0  0
    6.3062    0.1072    0.0000 C   0  0  0  0  0  0  0  0  0  0  0  0
    6.0837   -0.8677    0.0000 C   0  0  0  0  0  0  0  0  0  0  0  0
    4.1480    1.7830    0.0000 C   0  0  0  0  0  0  0  0  0  0  0  0
    3.4122   -1.4412    0.0000 C   0  0  2  0  0  0  0  0  0  0  0  0
    4.4932   -4.0150    0.0000 C   0  0  2  0  0  0  0  0  0  0  0  0
    3.4820   -2.4804    0.0000 C   0  0  0  0  0  0  0  0  0  0  0  0
    4.6619    2.6890    0.0000 C   0  0  0  0  0  0  0  0  0  0  0  0
    6.2388    3.6328    0.0000 C   0  0  1  0  0  0  0  0  0  0  0  0
    6.2647   -2.7870    0.0000 C   0  0  0  0  0  0  0  0  0  0  0  0
    7.3021    1.7579    0.0000 C   0  0  0  0  0  0  0  0  0  0  0  0
    3.6827    0.8890    0.0000 C   0  0  0  0  0  0  0  0  0  0  0  0
    5.4708   -4.4857    0.0000 C   0  0  1  0  0  0  0  0  0  0  0  0
    6.0984   -1.7693    0.0000 C   0  0  0  0  0  0  0  0  0  0  0  0
    6.7107    0.9131    0.0000 C   0  0  0  0  0  0  0  0  0  0  0  0
    6.3625   -3.8676    0.0000 C   0  0  0  0  0  0  0  0  0  0  0  0
    7.3238    3.6328    0.0000 C   0  0  2  0  0  0  0  0  0  0  0  0
    7.8590    2.6890    0.0000 C   0  0  0  0  0  0  0  0  0  0  0  0
    4.0559   -4.9142    0.0000 C   0  0  0  0  0  0  0  0  0  0  0  0
    3.4957   -4.0858    0.0000 C   0  0  0  0  0  0  0  0  0  0  0  0
    5.3708    4.1295    0.0000 C   0  0  0  0  0  0  0  0  0  0  0  0
    6.2349    4.6328    0.0000 C   0  0  0  0  0  0  0  0  0  0  0  0
    6.5308    0.9460    0.0000 H   0  0  0  0  0  0  0  0  0  0  0  0
    5.9221   -1.7209    0.0000 H   0  0  0  0  0  0  0  0  0  0  0  0
    3.7163   -3.4085    0.0000 H   0  0  0  0  0  0  0  0  0  0  0  0
    5.2757    3.4235    0.0000 H   0  0  0  0  0  0  0  0  0  0  0  0
    3.6727    0.5919    0.0000 H   0  0  0  0  0  0  0  0  0  0  0  0
    3.5006   -0.1618    0.0000 H   0  0  0  0  0  0  0  0  0  0  0  0
    6.8648   -0.1618    0.0000 H   0  0  0  0  0  0  0  0  0  0  0  0
    6.6928    0.5919    0.0000 H   0  0  0  0  0  0  0  0  0  0  0  0
    6.2216   -1.4722    0.0000 H   0  0  0  0  0  0  0  0  0  0  0  0
    6.7037   -0.8677    0.0000 H   0  0  0  0  0  0  0  0  0  0  0  0
    3.6690    2.1766    0.0000 H   0  0  0  0  0  0  0  0  0  0  0  0
    3.6783    1.3784    0.0000 H   0  0  0  0  0  0  0  0  0  0  0  0
    2.8966   -1.7855    0.0000 H   0  0  0  0  0  0  0  0  0  0  0  0
    2.8654   -2.4156    0.0000 H   0  0  0  0  0  0  0  0  0  0  0  0
    3.3125   -3.0768    0.0000 H   0  0  0  0  0  0  0  0  0  0  0  0
    4.7680    3.2999    0.0000 H   0  0  0  0  0  0  0  0  0  0  0  0
    4.0782    2.8981    0.0000 H   0  0  0  0  0  0  0  0  0  0  0  0
    6.8827   -2.8377    0.0000 H   0  0  0  0  0  0  0  0  0  0  0  0
    6.4204   -2.1869    0.0000 H   0  0  0  0  0  0  0  0  0  0  0  0
    7.1819    1.1496    0.0000 H   0  0  0  0  0  0  0  0  0  0  0  0
    7.8808    1.5354    0.0000 H   0  0  0  0  0  0  0  0  0  0  0  0
    3.6827    1.5090    0.0000 H   0  0  0  0  0  0  0  0  0  0  0  0
    3.0627    0.8890    0.0000 H   0  0  0  0  0  0  0  0  0  0  0  0
    3.6827    0.2690    0.0000 H   0  0  0  0  0  0  0  0  0  0  0  0
    4.9592   -4.8360    0.0000 H   0  0  0  0  0  0  0  0  0  0  0  0
    6.4516   -2.2789    0.0000 H   0  0  0  0  0  0  0  0  0  0  0  0
    6.6080   -1.4161    0.0000 H   0  0  0  0  0  0  0  0  0  0  0  0
    5.7452   -1.2598    0.0000 H   0  0  0  0  0  0  0  0  0  0  0  0
    6.1714    0.6073    0.0000 H   0  0  0  0  0  0  0  0  0  0  0  0
    7.0165    0.3738    0.0000 H   0  0  0  0  0  0  0  0  0  0  0  0
    7.2500    1.2190    0.0000 H   0  0  0  0  0  0  0  0  0  0  0  0
    6.6233   -4.4301    0.0000 H   0  0  0  0  0  0  0  0  0  0  0  0
    6.9613   -3.7069    0.0000 H   0  0  0  0  0  0  0  0  0  0  0  0
    7.0148    4.1704    0.0000 H   0  0  0  0  0  0  0  0  0  0  0  0
    8.3288    2.2844    0.0000 H   0  0  0  0  0  0  0  0  0  0  0  0
    8.3380    3.0827    0.0000 H   0  0  0  0  0  0  0  0  0  0  0  0
    3.3344    0.1844    0.0000 H   0  0  0  0  0  0  0  0  0  0  0  0
    3.9918   -5.5309    0.0000 H   0  0  0  0  0  0  0  0  0  0  0  0
    4.6520   -5.0845    0.0000 H   0  0  0  0  0  0  0  0  0  0  0  0
    3.4518   -3.4674    0.0000 H   0  0  0  0  0  0  0  0  0  0  0  0
    2.8773   -4.1298    0.0000 H   0  0  0  0  0  0  0  0  0  0  0  0
    3.5397   -4.7043    0.0000 H   0  0  0  0  0  0  0  0  0  0  0  0
    5.6788    4.6676    0.0000 H   0  0  0  0  0  0  0  0  0  0  0  0
    4.8327    4.4374    0.0000 H   0  0  0  0  0  0  0  0  0  0  0  0
    5.0629    3.5914    0.0000 H   0  0  0  0  0  0  0  0  0  0  0  0
    2.0000   -1.3402    0.0000 H   0  0  0  0  0  0  0  0  0  0  0  0
    6.1090   -5.7495    0.0000 H   0  0  0  0  0  0  0  0  0  0  0  0
    8.4471    4.4945    0.0000 H   0  0  0  0  0  0  0  0  0  0  0  0
    2.7872   -5.5427    0.0000 H   0  0  0  0  0  0  0  0  0  0  0  0
    5.3646    5.7495    0.0000 H   0  0  0  0  0  0  0  0  0  0  0  0
 13  1  1  6  0  0  0
  1 74  1  0  0  0  0
 20  2  1  6  0  0  0
  2 83  1  0  0  0  0
 28  3  1  1  0  0  0
  3 84  1  0  0  0  0
 32  4  1  1  0  0  0
  4 85  1  0  0  0  0
  5 34  1  0  0  0  0
  5 86  1  0  0  0  0
  6 37  1  0  0  0  0
  6 87  1  0  0  0  0
  7 37  2  0  0  0  0
  8  9  1  0  0  0  0
  8 11  1  0  0  0  0
  8 17  1  0  0  0  0
  8 38  1  6  0  0  0
  9 16  1  0  0  0  0
  9 19  1  0  0  0  0
  9 27  1  1  0  0  0
 10 12  1  0  0  0  0
 10 13  1  0  0  0  0
 10 18  1  0  0  0  0
 10 39  1  1  0  0  0
 11 15  1  0  0  0  0
 11 26  1  0  0  0  0
 11 30  1  1  0  0  0
 12 14  1  0  0  0  0
 12 25  1  0  0  0  0
 12 29  1  6  0  0  0
 13 16  1  0  0  0  0
 13 20  1  0  0  0  0
 14 21  1  0  0  0  0
 14 22  1  0  0  0  0
 14 40  1  1  0  0  0
 15 23  1  0  0  0  0
 15 24  1  0  0  0  0
 15 41  1  6  0  0  0
 16 42  1  0  0  0  0
 16 43  1  0  0  0  0
 17 18  1  0  0  0  0
 17 44  1  0  0  0  0
 17 45  1  0  0  0  0
 18 46  1  0  0  0  0
 18 47  1  0  0  0  0
 19 23  1  0  0  0  0
 19 48  1  0  0  0  0
 19 49  1  0  0  0  0
 20 22  1  0  0  0  0
 20 50  1  0  0  0  0
 21 28  1  0  0  0  0
 21 34  1  0  0  0  0
 21 35  1  1  0  0  0
 22 51  1  0  0  0  0
 22 52  1  0  0  0  0
 23 53  1  0  0  0  0
 23 54  1  0  0  0  0
 24 32  1  0  0  0  0
 24 36  1  6  0  0  0
 24 37  1  0  0  0  0
 25 31  1  0  0  0  0
 25 55  1  0  0  0  0
 25 56  1  0  0  0  0
 26 33  1  0  0  0  0
 26 57  1  0  0  0  0
 26 58  1  0  0  0  0
 27 59  1  0  0  0  0
 27 60  1  0  0  0  0
 27 61  1  0  0  0  0
 28 31  1  0  0  0  0
 28 62  1  0  0  0  0
 29 63  1  0  0  0  0
 29 64  1  0  0  0  0
 29 65  1  0  0  0  0
 30 66  1  0  0  0  0
 30 67  1  0  0  0  0
 30 68  1  0  0  0  0
 31 69  1  0  0  0  0
 31 70  1  0  0  0  0
 32 33  1  0  0  0  0
 32 71  1  0  0  0  0
 33 72  1  0  0  0  0
 33 73  1  0  0  0  0
 34 75  1  0  0  0  0
 34 76  1  0  0  0  0
 35 77  1  0  0  0  0
 35 78  1  0  0  0  0
 35 79  1  0  0  0  0
 36 80  1  0  0  0  0
 36 81  1  0  0  0  0
 36 82  1  0  0  0  0
M  END
> <PUBCHEM_COMPOUND_CID>
10436787

> <PUBCHEM_COMPOUND_CANONICALIZED>
1

> <PUBCHEM_CACTVS_COMPLEXITY>
941

> <PUBCHEM_CACTVS_HBOND_ACCEPTOR>
7

> <PUBCHEM_CACTVS_HBOND_DONOR>
6

> <PUBCHEM_CACTVS_ROTATABLE_BOND>
2

> <PUBCHEM_CACTVS_SUBSKEYS>
AAADcfB4OAAAAAAAAAAAAAAAAAAAAAAAAAAwYMGABgAAAADAAAAAGgAACAAAD1SggAICCAAAAgAIAACQCAAAAAAAAAAAAAEAAAABEBYAAAAAQAAFIAABAAGI6PSPgAAAAAAAAADAAAYAADCAAAAAAAAAAA==

> <PUBCHEM_IUPAC_OPENEYE_NAME>
(1R,3S,6R,7R,8S,11R,12S,15R,16S,19R,20S,21R,23S)-1,8,19,23-tetrahydroxy-20-(hydroxymethyl)-3,7,11,16,20-pentamethyl-pentacyclo[13.8.0.03,12.06,11.016,21]tricosane-7-carboxylic acid

> <PUBCHEM_IUPAC_CAS_NAME>
(1R,3S,6R,7R,8S,11R,12S,15R,16S,19R,20S,21R,23S)-1,8,19,23-tetrahydroxy-20-(hydroxymethyl)-3,7,11,16,20-pentamethyl-7-pentacyclo[13.8.0.03,12.06,11.016,21]tricosanecarboxylic acid

> <PUBCHEM_IUPAC_NAME_MARKUP>
(1<I>R</I>,3<I>S</I>,6<I>R</I>,7<I>R</I>,8<I>S</I>,11<I>R</I>,12<I>S</I>,15<I>R</I>,16<I>S</I>,19<I>R</I>,20<I>S</I>,21<I>R</I>,23<I>S</I>)-1,8,19,23-tetrahydroxy-20-(hydroxymethyl)-3,7,11,16,20-pentamethylpentacyclo[13.8.0.0<SUP>3,12</SUP>.0<SUP>6,11</SUP>.0<SUP>16,21</SUP>]tricosane-7-carboxylic acid

> <PUBCHEM_IUPAC_NAME>
(1R,3S,6R,7R,8S,11R,12S,15R,16S,19R,20S,21R,23S)-1,8,19,23-tetrahydroxy-20-(hydroxymethyl)-3,7,11,16,20-pentamethylpentacyclo[13.8.0.03,12.06,11.016,21]tricosane-7-carboxylic acid

> <PUBCHEM_IUPAC_SYSTEMATIC_NAME>
(1R,3S,6R,7R,8S,11R,12S,15R,16S,19R,20S,21R,23S)-20-(hydroxymethyl)-3,7,11,16,20-pentamethyl-1,8,19,23-tetrakis(oxidanyl)pentacyclo[13.8.0.03,12.06,11.016,21]tricosane-7-carboxylic acid

> <PUBCHEM_IUPAC_TRADITIONAL_NAME>
(1R,3S,6R,7R,8S,11R,12S,15R,16S,19R,20S,21R,23S)-1,8,19,23-tetrahydroxy-3,7,11,16,20-pentamethyl-20-methylol-pentacyclo[13.8.0.03,12.06,11.016,21]tricosane-7-carboxylic acid

> <PUBCHEM_IUPAC_INCHI>
InChI=1S/C30H50O7/c1-25-11-8-18-26(2,13-10-22(33)29(18,5)24(35)36)17(25)6-7-19-27(3)12-9-21(32)28(4,16-31)20(27)14-23(34)30(19,37)15-25/h17-23,31-34,37H,6-16H2,1-5H3,(H,35,36)/t17-,18+,19+,20+,21+,22-,23-,25-,26+,27+,28+,29+,30+/m0/s1

> <PUBCHEM_IUPAC_INCHIKEY>
GXXMOCUQFZJZRW-MEWBIXJBSA-N

> <PUBCHEM_XLOGP3_AA>
4.5

> <PUBCHEM_EXACT_MASS>
522.35565393

> <PUBCHEM_MOLECULAR_FORMULA>
C30H50O7

> <PUBCHEM_MOLECULAR_WEIGHT>
522.7

> <PUBCHEM_OPENEYE_CAN_SMILES>
CC12CCC3C(C1CCC4C5(CCC(C(C5CC(C4(C2)O)O)(C)CO)O)C)(CCC(C3(C)C(=O)O)O)C

> <PUBCHEM_OPENEYE_ISO_SMILES>
C[C@@]12CC[C@@H]3[C@@]([C@H]1CC[C@@H]4[C@]5(CC[C@H]([C@]([C@@H]5C[C@@H]([C@]4(C2)O)O)(C)CO)O)C)(CC[C@@H]([C@]3(C)C(=O)O)O)C

> <PUBCHEM_CACTVS_TPSA>
138

> <PUBCHEM_MONOISOTOPIC_WEIGHT>
522.35565393

> <PUBCHEM_TOTAL_CHARGE>
0

> <PUBCHEM_HEAVY_ATOM_COUNT>
37

> <PUBCHEM_ATOM_DEF_STEREO_COUNT>
13

> <PUBCHEM_ATOM_UDEF_STEREO_COUNT>
0

> <PUBCHEM_BOND_DEF_STEREO_COUNT>
0

> <PUBCHEM_BOND_UDEF_STEREO_COUNT>
0

> <PUBCHEM_ISOTOPIC_ATOM_COUNT>
0

> <PUBCHEM_COMPONENT_COUNT>
1

> <PUBCHEM_CACTVS_TAUTO_COUNT>
-1

> <PUBCHEM_COORDINATE_TYPE>
1
5
255

> <PUBCHEM_BONDANNOTATIONS>
13  1  6
10  39  5
11  30  5
12  29  6
14  40  5
15  41  6
20  2  6
21  35  5
24  36  6
28  3  5
32  4  5
8  38  6
9  27  5

$$$$
