 
  -OEChem-10192103312D

 60 61  0     1  0  0  0  0  0999 V2000
    6.3981    2.0000    0.0000 P   0  0  0  0  0  0  0  0  0  0  0  0
    5.5321   -2.5000    0.0000 P   0  0  0  0  0  0  0  0  0  0  0  0
    6.3981    3.0000    0.0000 O   0  0  0  0  0  0  0  0  0  0  0  0
    7.3981    2.0000    0.0000 O   0  0  0  0  0  0  0  0  0  0  0  0
    6.3981   -3.0000    0.0000 O   0  0  0  0  0  0  0  0  0  0  0  0
    5.0321   -3.3660    0.0000 O   0  0  0  0  0  0  0  0  0  0  0  0
    5.3981    2.0000    0.0000 O   0  0  0  0  0  0  0  0  0  0  0  0
    6.0321   -1.6340    0.0000 O   0  0  0  0  0  0  0  0  0  0  0  0
    5.5321    0.5000    0.0000 N   0  0  3  0  0  0  0  0  0  0  0  0
    4.6660   -1.0000    0.0000 N   0  0  3  0  0  0  0  0  0  0  0  0
    5.5321   -0.5000    0.0000 C   0  0  0  0  0  0  0  0  0  0  0  0
    4.6660    1.0000    0.0000 C   0  0  0  0  0  0  0  0  0  0  0  0
    3.8000   -0.5000    0.0000 C   0  0  0  0  0  0  0  0  0  0  0  0
    3.8000    0.5000    0.0000 C   0  0  0  0  0  0  0  0  0  0  0  0
    6.3981    1.0000    0.0000 C   0  0  0  0  0  0  0  0  0  0  0  0
    4.6660   -2.0000    0.0000 C   0  0  0  0  0  0  0  0  0  0  0  0
    2.9061   -1.0347    0.0000 C   0  0  0  0  0  0  0  0  0  0  0  0
    2.9061    1.0347    0.0000 C   0  0  0  0  0  0  0  0  0  0  0  0
    2.0000   -0.5208    0.0000 C   0  0  0  0  0  0  0  0  0  0  0  0
    2.0000    0.5208    0.0000 C   0  0  0  0  0  0  0  0  0  0  0  0
    7.2641    3.5000    0.0000 C   0  0  0  0  0  0  0  0  0  0  0  0
    7.8981    1.1340    0.0000 C   0  0  0  0  0  0  0  0  0  0  0  0
    6.3981   -4.0000    0.0000 C   0  0  0  0  0  0  0  0  0  0  0  0
    4.0321   -3.3660    0.0000 C   0  0  0  0  0  0  0  0  0  0  0  0
    7.2641    4.5000    0.0000 C   0  0  0  0  0  0  0  0  0  0  0  0
    8.8981    1.1340    0.0000 C   0  0  0  0  0  0  0  0  0  0  0  0
    7.2641   -4.5000    0.0000 C   0  0  0  0  0  0  0  0  0  0  0  0
    3.5321   -4.2320    0.0000 C   0  0  0  0  0  0  0  0  0  0  0  0
    5.7441   -1.0826    0.0000 H   0  0  0  0  0  0  0  0  0  0  0  0
    6.1426   -0.3923    0.0000 H   0  0  0  0  0  0  0  0  0  0  0  0
    5.0646    1.4750    0.0000 H   0  0  0  0  0  0  0  0  0  0  0  0
    4.2675    1.4750    0.0000 H   0  0  0  0  0  0  0  0  0  0  0  0
    6.6101    0.4174    0.0000 H   0  0  0  0  0  0  0  0  0  0  0  0
    7.0087    1.1077    0.0000 H   0  0  0  0  0  0  0  0  0  0  0  0
    4.0555   -1.8923    0.0000 H   0  0  0  0  0  0  0  0  0  0  0  0
    4.4540   -2.5826    0.0000 H   0  0  0  0  0  0  0  0  0  0  0  0
    2.9132   -1.6546    0.0000 H   0  0  0  0  0  0  0  0  0  0  0  0
    2.9132    1.6546    0.0000 H   0  0  0  0  0  0  0  0  0  0  0  0
    1.4643   -0.8329    0.0000 H   0  0  0  0  0  0  0  0  0  0  0  0
    1.4643    0.8329    0.0000 H   0  0  0  0  0  0  0  0  0  0  0  0
    7.4762    2.9174    0.0000 H   0  0  0  0  0  0  0  0  0  0  0  0
    7.8747    3.6077    0.0000 H   0  0  0  0  0  0  0  0  0  0  0  0
    7.3155    0.9219    0.0000 H   0  0  0  0  0  0  0  0  0  0  0  0
    8.0058    0.5234    0.0000 H   0  0  0  0  0  0  0  0  0  0  0  0
    5.7875   -3.8923    0.0000 H   0  0  0  0  0  0  0  0  0  0  0  0
    6.1860   -4.5826    0.0000 H   0  0  0  0  0  0  0  0  0  0  0  0
    4.1397   -2.7554    0.0000 H   0  0  0  0  0  0  0  0  0  0  0  0
    3.4494   -3.1540    0.0000 H   0  0  0  0  0  0  0  0  0  0  0  0
    7.8841    4.5000    0.0000 H   0  0  0  0  0  0  0  0  0  0  0  0
    7.2641    5.1200    0.0000 H   0  0  0  0  0  0  0  0  0  0  0  0
    6.6441    4.5000    0.0000 H   0  0  0  0  0  0  0  0  0  0  0  0
    8.8981    0.5140    0.0000 H   0  0  0  0  0  0  0  0  0  0  0  0
    9.5181    1.1340    0.0000 H   0  0  0  0  0  0  0  0  0  0  0  0
    8.8981    1.7540    0.0000 H   0  0  0  0  0  0  0  0  0  0  0  0
    6.9541   -5.0369    0.0000 H   0  0  0  0  0  0  0  0  0  0  0  0
    7.8010   -4.8100    0.0000 H   0  0  0  0  0  0  0  0  0  0  0  0
    7.5741   -3.9631    0.0000 H   0  0  0  0  0  0  0  0  0  0  0  0
    2.9951   -3.9220    0.0000 H   0  0  0  0  0  0  0  0  0  0  0  0
    3.2221   -4.7690    0.0000 H   0  0  0  0  0  0  0  0  0  0  0  0
    4.0690   -4.5420    0.0000 H   0  0  0  0  0  0  0  0  0  0  0  0
  1  3  1  0  0  0  0
  1  4  1  0  0  0  0
  1  7  2  0  0  0  0
  1 15  1  0  0  0  0
  2  5  1  0  0  0  0
  2  6  1  0  0  0  0
  2  8  2  0  0  0  0
  2 16  1  0  0  0  0
  3 21  1  0  0  0  0
  4 22  1  0  0  0  0
  5 23  1  0  0  0  0
  6 24  1  0  0  0  0
  9 11  1  0  0  0  0
  9 12  1  0  0  0  0
  9 15  1  0  0  0  0
 10 11  1  0  0  0  0
 10 13  1  0  0  0  0
 10 16  1  0  0  0  0
 11 29  1  0  0  0  0
 11 30  1  0  0  0  0
 12 14  1  0  0  0  0
 12 31  1  0  0  0  0
 12 32  1  0  0  0  0
 13 14  1  0  0  0  0
 13 17  2  0  0  0  0
 14 18  2  0  0  0  0
 15 33  1  0  0  0  0
 15 34  1  0  0  0  0
 16 35  1  0  0  0  0
 16 36  1  0  0  0  0
 17 19  1  0  0  0  0
 17 37  1  0  0  0  0
 18 20  1  0  0  0  0
 18 38  1  0  0  0  0
 19 20  2  0  0  0  0
 19 39  1  0  0  0  0
 20 40  1  0  0  0  0
 21 25  1  0  0  0  0
 21 41  1  0  0  0  0
 21 42  1  0  0  0  0
 22 26  1  0  0  0  0
 22 43  1  0  0  0  0
 22 44  1  0  0  0  0
 23 27  1  0  0  0  0
 23 45  1  0  0  0  0
 23 46  1  0  0  0  0
 24 28  1  0  0  0  0
 24 47  1  0  0  0  0
 24 48  1  0  0  0  0
 25 49  1  0  0  0  0
 25 50  1  0  0  0  0
 25 51  1  0  0  0  0
 26 52  1  0  0  0  0
 26 53  1  0  0  0  0
 26 54  1  0  0  0  0
 27 55  1  0  0  0  0
 27 56  1  0  0  0  0
 27 57  1  0  0  0  0
 28 58  1  0  0  0  0
 28 59  1  0  0  0  0
 28 60  1  0  0  0  0
M  END
> <PUBCHEM_COMPOUND_CID>
4300521

> <PUBCHEM_COMPOUND_CANONICALIZED>
1

> <PUBCHEM_CACTVS_COMPLEXITY>
544

> <PUBCHEM_CACTVS_HBOND_ACCEPTOR>
8

> <PUBCHEM_CACTVS_HBOND_DONOR>
0

> <PUBCHEM_CACTVS_ROTATABLE_BOND>
12

> <PUBCHEM_CACTVS_SUBSKEYS>
AAADcfB7OAMAAAAAAAAAAAAAAAAAAAAAAAA8QAAAAAAAAACxAAAAHggAACAADAjhmAYzwIMAARCAQiRCQICCAAAhAgAIiAAIZIiIICLA0ZGEIAhogAJIyCcQgAAOAAAAAAACAAAAAAAAAAQAAAAAAAAAAA==

> <PUBCHEM_IUPAC_OPENEYE_NAME>
1,3-bis(diethoxyphosphorylmethyl)-2,4-dihydroquinazoline

> <PUBCHEM_IUPAC_CAS_NAME>
1,3-bis(diethoxyphosphorylmethyl)-2,4-dihydroquinazoline

> <PUBCHEM_IUPAC_NAME_MARKUP>
1,3-bis(diethoxyphosphorylmethyl)-2,4-dihydroquinazoline

> <PUBCHEM_IUPAC_NAME>
1,3-bis(diethoxyphosphorylmethyl)-2,4-dihydroquinazoline

> <PUBCHEM_IUPAC_SYSTEMATIC_NAME>
1,3-bis(diethoxyphosphorylmethyl)-2,4-dihydroquinazoline

> <PUBCHEM_IUPAC_TRADITIONAL_NAME>
1,3-bis(diethoxyphosphorylmethyl)-2,4-dihydroquinazoline

> <PUBCHEM_IUPAC_INCHI>
InChI=1S/C18H32N2O6P2/c1-5-23-27(21,24-6-2)15-19-13-17-11-9-10-12-18(17)20(14-19)16-28(22,25-7-3)26-8-4/h9-12H,5-8,13-16H2,1-4H3

> <PUBCHEM_IUPAC_INCHIKEY>
VCOIXUWZENYMHG-UHFFFAOYSA-N

> <PUBCHEM_XLOGP3_AA>
1.9

> <PUBCHEM_EXACT_MASS>
434.17356074

> <PUBCHEM_MOLECULAR_FORMULA>
C18H32N2O6P2

> <PUBCHEM_MOLECULAR_WEIGHT>
434.4

> <PUBCHEM_OPENEYE_CAN_SMILES>
CCOP(=O)(CN1CC2=CC=CC=C2N(C1)CP(=O)(OCC)OCC)OCC

> <PUBCHEM_OPENEYE_ISO_SMILES>
CCOP(=O)(CN1CC2=CC=CC=C2N(C1)CP(=O)(OCC)OCC)OCC

> <PUBCHEM_CACTVS_TPSA>
77.5

> <PUBCHEM_MONOISOTOPIC_WEIGHT>
434.17356074

> <PUBCHEM_TOTAL_CHARGE>
0

> <PUBCHEM_HEAVY_ATOM_COUNT>
28

> <PUBCHEM_ATOM_DEF_STEREO_COUNT>
0

> <PUBCHEM_ATOM_UDEF_STEREO_COUNT>
0

> <PUBCHEM_BOND_DEF_STEREO_COUNT>
0

> <PUBCHEM_BOND_UDEF_STEREO_COUNT>
0

> <PUBCHEM_ISOTOPIC_ATOM_COUNT>
0

> <PUBCHEM_COMPONENT_COUNT>
1

> <PUBCHEM_CACTVS_TAUTO_COUNT>
-1

> <PUBCHEM_COORDINATE_TYPE>
1
5
255

> <PUBCHEM_BONDANNOTATIONS>
13  14  8
13  17  8
14  18  8
17  19  8
18  20  8
19  20  8

$$$$
