 
  -OEChem-10192103582D

 63 65  0     1  0  0  0  0  0999 V2000
    8.0622    1.7890    0.0000 O   0  0  0  0  0  0  0  0  0  0  0  0
    9.2942    4.6550    0.0000 O   0  0  0  0  0  0  0  0  0  0  0  0
    9.7942    0.7890    0.0000 O   0  0  0  0  0  0  0  0  0  0  0  0
   11.5263    1.7890    0.0000 O   0  0  0  0  0  0  0  0  0  0  0  0
   11.2942    4.6550    0.0000 O   0  0  0  0  0  0  0  0  0  0  0  0
   10.6603    0.2890    0.0000 O   0  0  0  0  0  0  0  0  0  0  0  0
    9.7942    5.5210    0.0000 O   0  0  0  0  0  0  0  0  0  0  0  0
    7.1962    3.2890    0.0000 O   0  0  0  0  0  0  0  0  0  0  0  0
    2.0000    2.2890    0.0000 O   0  0  0  0  0  0  0  0  0  0  0  0
    2.0000    0.2890    0.0000 O   0  0  0  0  0  0  0  0  0  0  0  0
   13.2583   -5.2110    0.0000 O   0  0  0  0  0  0  0  0  0  0  0  0
   14.9904   -4.2110    0.0000 O   0  0  0  0  0  0  0  0  0  0  0  0
    9.7942    3.7890    0.0000 C   0  0  1  0  0  0  0  0  0  0  0  0
    8.9282    2.2890    0.0000 C   0  0  1  0  0  0  0  0  0  0  0  0
    9.7942    1.7890    0.0000 C   0  0  2  0  0  0  0  0  0  0  0  0
    8.9282    3.2890    0.0000 C   0  0  0  0  0  0  0  0  0  0  0  0
   10.6603    3.2890    0.0000 C   0  0  0  0  0  0  0  0  0  0  0  0
   10.6603    2.2890    0.0000 C   0  0  1  0  0  0  0  0  0  0  0  0
   10.2942    4.6550    0.0000 C   0  0  0  0  0  0  0  0  0  0  0  0
    7.1962    2.2890    0.0000 C   0  0  0  0  0  0  0  0  0  0  0  0
   10.6603   -0.7110    0.0000 C   0  0  0  0  0  0  0  0  0  0  0  0
    6.3301    1.7890    0.0000 C   0  0  0  0  0  0  0  0  0  0  0  0
   11.5263   -1.2110    0.0000 C   0  0  0  0  0  0  0  0  0  0  0  0
    5.4641    2.2890    0.0000 C   0  0  0  0  0  0  0  0  0  0  0  0
    4.5981    1.7890    0.0000 C   0  0  0  0  0  0  0  0  0  0  0  0
   11.5263   -2.2110    0.0000 C   0  0  0  0  0  0  0  0  0  0  0  0
   12.3923   -2.7110    0.0000 C   0  0  0  0  0  0  0  0  0  0  0  0
    3.7320    2.2890    0.0000 C   0  0  0  0  0  0  0  0  0  0  0  0
    4.5981    0.7890    0.0000 C   0  0  0  0  0  0  0  0  0  0  0  0
    2.8660    1.7890    0.0000 C   0  0  0  0  0  0  0  0  0  0  0  0
    3.7320    0.2890    0.0000 C   0  0  0  0  0  0  0  0  0  0  0  0
   12.3923   -3.7110    0.0000 C   0  0  0  0  0  0  0  0  0  0  0  0
   13.2583   -2.2110    0.0000 C   0  0  0  0  0  0  0  0  0  0  0  0
    2.8660    0.7890    0.0000 C   0  0  0  0  0  0  0  0  0  0  0  0
   13.2583   -4.2110    0.0000 C   0  0  0  0  0  0  0  0  0  0  0  0
   14.1244   -2.7110    0.0000 C   0  0  0  0  0  0  0  0  0  0  0  0
   14.1244   -3.7110    0.0000 C   0  0  0  0  0  0  0  0  0  0  0  0
    8.3913    2.5990    0.0000 H   0  0  0  0  0  0  0  0  0  0  0  0
    9.2573    1.4790    0.0000 H   0  0  0  0  0  0  0  0  0  0  0  0
    8.7162    3.8716    0.0000 H   0  0  0  0  0  0  0  0  0  0  0  0
    8.3176    3.1813    0.0000 H   0  0  0  0  0  0  0  0  0  0  0  0
   11.2708    3.1813    0.0000 H   0  0  0  0  0  0  0  0  0  0  0  0
   10.8723    3.8716    0.0000 H   0  0  0  0  0  0  0  0  0  0  0  0
   10.6603    1.6690    0.0000 H   0  0  0  0  0  0  0  0  0  0  0  0
    8.6742    4.6550    0.0000 H   0  0  0  0  0  0  0  0  0  0  0  0
   12.0632    2.0990    0.0000 H   0  0  0  0  0  0  0  0  0  0  0  0
   11.6042    5.1919    0.0000 H   0  0  0  0  0  0  0  0  0  0  0  0
   10.0497   -0.6034    0.0000 H   0  0  0  0  0  0  0  0  0  0  0  0
   10.4482   -1.2936    0.0000 H   0  0  0  0  0  0  0  0  0  0  0  0
    6.3301    1.1690    0.0000 H   0  0  0  0  0  0  0  0  0  0  0  0
   12.0632   -0.9010    0.0000 H   0  0  0  0  0  0  0  0  0  0  0  0
    5.4641    2.9090    0.0000 H   0  0  0  0  0  0  0  0  0  0  0  0
   10.9893   -2.5210    0.0000 H   0  0  0  0  0  0  0  0  0  0  0  0
    3.7320    2.9090    0.0000 H   0  0  0  0  0  0  0  0  0  0  0  0
    5.1350    0.4790    0.0000 H   0  0  0  0  0  0  0  0  0  0  0  0
    3.7320   -0.3310    0.0000 H   0  0  0  0  0  0  0  0  0  0  0  0
   11.8554   -4.0210    0.0000 H   0  0  0  0  0  0  0  0  0  0  0  0
   13.2583   -1.5910    0.0000 H   0  0  0  0  0  0  0  0  0  0  0  0
   14.6613   -2.4010    0.0000 H   0  0  0  0  0  0  0  0  0  0  0  0
    2.0000    2.9090    0.0000 H   0  0  0  0  0  0  0  0  0  0  0  0
    2.0000   -0.3310    0.0000 H   0  0  0  0  0  0  0  0  0  0  0  0
   12.7214   -5.5210    0.0000 H   0  0  0  0  0  0  0  0  0  0  0  0
   15.5273   -3.9010    0.0000 H   0  0  0  0  0  0  0  0  0  0  0  0
 14  1  1  6  0  0  0
  1 20  1  0  0  0  0
 13  2  1  6  0  0  0
  2 45  1  0  0  0  0
  3  6  1  0  0  0  0
 15  3  1  6  0  0  0
 18  4  1  1  0  0  0
  4 46  1  0  0  0  0
  5 19  1  0  0  0  0
  5 47  1  0  0  0  0
  6 21  1  0  0  0  0
  7 19  2  0  0  0  0
  8 20  2  0  0  0  0
  9 30  1  0  0  0  0
  9 60  1  0  0  0  0
 10 34  1  0  0  0  0
 10 61  1  0  0  0  0
 11 35  1  0  0  0  0
 11 62  1  0  0  0  0
 12 37  1  0  0  0  0
 12 63  1  0  0  0  0
 13 16  1  0  0  0  0
 13 17  1  0  0  0  0
 13 19  1  0  0  0  0
 14 15  1  0  0  0  0
 14 16  1  0  0  0  0
 14 38  1  0  0  0  0
 15 18  1  0  0  0  0
 15 39  1  0  0  0  0
 16 40  1  0  0  0  0
 16 41  1  0  0  0  0
 17 18  1  0  0  0  0
 17 42  1  0  0  0  0
 17 43  1  0  0  0  0
 18 44  1  0  0  0  0
 20 22  1  0  0  0  0
 21 23  1  0  0  0  0
 21 48  1  0  0  0  0
 21 49  1  0  0  0  0
 22 24  2  0  0  0  0
 22 50  1  0  0  0  0
 23 26  2  0  0  0  0
 23 51  1  0  0  0  0
 24 25  1  0  0  0  0
 24 52  1  0  0  0  0
 25 28  2  0  0  0  0
 25 29  1  0  0  0  0
 26 27  1  0  0  0  0
 26 53  1  0  0  0  0
 27 32  2  0  0  0  0
 27 33  1  0  0  0  0
 28 30  1  0  0  0  0
 28 54  1  0  0  0  0
 29 31  2  0  0  0  0
 29 55  1  0  0  0  0
 30 34  2  0  0  0  0
 31 34  1  0  0  0  0
 31 56  1  0  0  0  0
 32 35  1  0  0  0  0
 32 57  1  0  0  0  0
 33 36  2  0  0  0  0
 33 58  1  0  0  0  0
 35 37  2  0  0  0  0
 36 37  1  0  0  0  0
 36 59  1  0  0  0  0
M  END
> <PUBCHEM_COMPOUND_CID>
57378236

> <PUBCHEM_COMPOUND_CANONICALIZED>
1

> <PUBCHEM_CACTVS_COMPLEXITY>
831

> <PUBCHEM_CACTVS_HBOND_ACCEPTOR>
12

> <PUBCHEM_CACTVS_HBOND_DONOR>
7

> <PUBCHEM_CACTVS_ROTATABLE_BOND>
10

> <PUBCHEM_CACTVS_SUBSKEYS>
AAADceB4PAAAAAAAAAAAAAAAAAAAAAAAAAAwYMAAAAAAAAABQAAAGgAADAAADFSgmAIwDoAABgCIAiDSCAICAAAgIAAIiAFGiMgJNjKCMRKCcAElwBELuYfK7DzOIAABAAAAQABCAAIQAACAAAAAAAAAAA==

> <PUBCHEM_IUPAC_OPENEYE_NAME>
(1R,3R,4S,5R)-4-[(E)-3-(3,4-dihydroxyphenyl)allyl]peroxy-3-[(E)-3-(3,4-dihydroxyphenyl)prop-2-enoyl]oxy-1,5-dihydroxy-cyclohexanecarboxylic acid

> <PUBCHEM_IUPAC_CAS_NAME>
(1R,3R,4S,5R)-3-[(E)-3-(3,4-dihydroxyphenyl)-1-oxoprop-2-enoxy]-4-[(E)-3-(3,4-dihydroxyphenyl)prop-2-enyl]dioxy-1,5-dihydroxy-1-cyclohexanecarboxylic acid

> <PUBCHEM_IUPAC_NAME_MARKUP>
(1<I>R</I>,3<I>R</I>,4<I>S</I>,5<I>R</I>)-3-[(<I>E</I>)-3-(3,4-dihydroxyphenyl)prop-2-enoyl]oxy-4-[(<I>E</I>)-3-(3,4-dihydroxyphenyl)prop-2-enyl]peroxy-1,5-dihydroxycyclohexane-1-carboxylic acid

> <PUBCHEM_IUPAC_NAME>
(1R,3R,4S,5R)-3-[(E)-3-(3,4-dihydroxyphenyl)prop-2-enoyl]oxy-4-[(E)-3-(3,4-dihydroxyphenyl)prop-2-enyl]peroxy-1,5-dihydroxycyclohexane-1-carboxylic acid

> <PUBCHEM_IUPAC_SYSTEMATIC_NAME>
(1R,3R,4S,5R)-3-[(E)-3-[3,4-bis(oxidanyl)phenyl]prop-2-enoyl]oxy-4-[(E)-3-[3,4-bis(oxidanyl)phenyl]prop-2-enyl]peroxy-1,5-bis(oxidanyl)cyclohexane-1-carboxylic acid

> <PUBCHEM_IUPAC_TRADITIONAL_NAME>
(1R,3R,4S,5R)-3-[(E)-3-(3,4-dihydroxyphenyl)acryloyl]oxy-4-[(E)-3-(3,4-dihydroxyphenyl)allyl]peroxy-1,5-dihydroxy-cyclohexanecarboxylic acid

> <PUBCHEM_IUPAC_INCHI>
InChI=1S/C25H26O12/c26-16-6-3-14(10-18(16)28)2-1-9-35-37-23-20(30)12-25(34,24(32)33)13-21(23)36-22(31)8-5-15-4-7-17(27)19(29)11-15/h1-8,10-11,20-21,23,26-30,34H,9,12-13H2,(H,32,33)/b2-1+,8-5+/t20-,21-,23+,25-/m1/s1

> <PUBCHEM_IUPAC_INCHIKEY>
CVBGAIVSRMYDKM-MARBGDOQSA-N

> <PUBCHEM_XLOGP3_AA>
1.6

> <PUBCHEM_EXACT_MASS>
518.14242626

> <PUBCHEM_MOLECULAR_FORMULA>
C25H26O12

> <PUBCHEM_MOLECULAR_WEIGHT>
518.5

> <PUBCHEM_OPENEYE_CAN_SMILES>
C1C(C(C(CC1(C(=O)O)O)OC(=O)C=CC2=CC(=C(C=C2)O)O)OOCC=CC3=CC(=C(C=C3)O)O)O

> <PUBCHEM_OPENEYE_ISO_SMILES>
C1[C@H]([C@@H]([C@@H](C[C@]1(C(=O)O)O)OC(=O)/C=C/C2=CC(=C(C=C2)O)O)OOC/C=C/C3=CC(=C(C=C3)O)O)O

> <PUBCHEM_CACTVS_TPSA>
203

> <PUBCHEM_MONOISOTOPIC_WEIGHT>
518.14242626

> <PUBCHEM_TOTAL_CHARGE>
0

> <PUBCHEM_HEAVY_ATOM_COUNT>
37

> <PUBCHEM_ATOM_DEF_STEREO_COUNT>
4

> <PUBCHEM_ATOM_UDEF_STEREO_COUNT>
0

> <PUBCHEM_BOND_DEF_STEREO_COUNT>
2

> <PUBCHEM_BOND_UDEF_STEREO_COUNT>
0

> <PUBCHEM_ISOTOPIC_ATOM_COUNT>
0

> <PUBCHEM_COMPONENT_COUNT>
1

> <PUBCHEM_CACTVS_TAUTO_COUNT>
-1

> <PUBCHEM_COORDINATE_TYPE>
1
5
255

> <PUBCHEM_BONDANNOTATIONS>
14  1  6
13  2  6
25  28  8
25  29  8
27  32  8
27  33  8
28  30  8
29  31  8
15  3  6
30  34  8
31  34  8
32  35  8
33  36  8
35  37  8
36  37  8
18  4  5

$$$$
