 
  -OEChem-10192103422D

 67 66  0     1  0  0  0  0  0999 V2000
   18.9914    0.0950    0.0000 O   0  0  0  0  0  0  0  0  0  0  0  0
   18.1254   -1.4050    0.0000 O   0  0  0  0  0  0  0  0  0  0  0  0
    2.5369   -0.4050    0.0000 O   0  0  0  0  0  0  0  0  0  0  0  0
    3.4030    1.0950    0.0000 O   0  0  0  0  0  0  0  0  0  0  0  0
   20.7235    1.0950    0.0000 O   0  0  0  0  0  0  0  0  0  0  0  0
   22.4555    0.0950    0.0000 O   0  0  0  0  0  0  0  0  0  0  0  0
   11.1972   -0.4050    0.0000 C   0  0  0  0  0  0  0  0  0  0  0  0
   10.3312    0.0950    0.0000 C   0  0  0  0  0  0  0  0  0  0  0  0
   12.0632    0.0950    0.0000 C   0  0  0  0  0  0  0  0  0  0  0  0
    9.4651   -0.4050    0.0000 C   0  0  0  0  0  0  0  0  0  0  0  0
   12.9292   -0.4050    0.0000 C   0  0  0  0  0  0  0  0  0  0  0  0
    8.5991    0.0950    0.0000 C   0  0  0  0  0  0  0  0  0  0  0  0
   13.7953    0.0950    0.0000 C   0  0  0  0  0  0  0  0  0  0  0  0
    7.7331   -0.4050    0.0000 C   0  0  0  0  0  0  0  0  0  0  0  0
   14.6613   -0.4050    0.0000 C   0  0  0  0  0  0  0  0  0  0  0  0
    6.8671    0.0950    0.0000 C   0  0  0  0  0  0  0  0  0  0  0  0
   15.5273    0.0950    0.0000 C   0  0  0  0  0  0  0  0  0  0  0  0
    6.0010   -0.4050    0.0000 C   0  0  0  0  0  0  0  0  0  0  0  0
   16.3933   -0.4050    0.0000 C   0  0  0  0  0  0  0  0  0  0  0  0
    5.1350    0.0950    0.0000 C   0  0  0  0  0  0  0  0  0  0  0  0
   17.2594    0.0950    0.0000 C   0  0  0  0  0  0  0  0  0  0  0  0
    4.2690   -0.4050    0.0000 C   0  0  0  0  0  0  0  0  0  0  0  0
   18.1254   -0.4050    0.0000 C   0  0  0  0  0  0  0  0  0  0  0  0
    3.4030    0.0950    0.0000 C   0  0  0  0  0  0  0  0  0  0  0  0
   19.8574   -0.4050    0.0000 C   0  0  0  0  0  0  0  0  0  0  0  0
   20.7235    0.0950    0.0000 C   0  0  3  0  0  0  0  0  0  0  0  0
   21.5895   -0.4050    0.0000 C   0  0  0  0  0  0  0  0  0  0  0  0
   10.7987   -0.8799    0.0000 H   0  0  0  0  0  0  0  0  0  0  0  0
   11.5957   -0.8799    0.0000 H   0  0  0  0  0  0  0  0  0  0  0  0
   10.7297    0.5699    0.0000 H   0  0  0  0  0  0  0  0  0  0  0  0
    9.9326    0.5699    0.0000 H   0  0  0  0  0  0  0  0  0  0  0  0
   12.4617    0.5699    0.0000 H   0  0  0  0  0  0  0  0  0  0  0  0
   11.6647    0.5699    0.0000 H   0  0  0  0  0  0  0  0  0  0  0  0
    9.0666   -0.8799    0.0000 H   0  0  0  0  0  0  0  0  0  0  0  0
    9.8637   -0.8799    0.0000 H   0  0  0  0  0  0  0  0  0  0  0  0
   12.5307   -0.8799    0.0000 H   0  0  0  0  0  0  0  0  0  0  0  0
   13.3278   -0.8799    0.0000 H   0  0  0  0  0  0  0  0  0  0  0  0
    8.9976    0.5699    0.0000 H   0  0  0  0  0  0  0  0  0  0  0  0
    8.2006    0.5699    0.0000 H   0  0  0  0  0  0  0  0  0  0  0  0
   14.1938    0.5699    0.0000 H   0  0  0  0  0  0  0  0  0  0  0  0
   13.3967    0.5699    0.0000 H   0  0  0  0  0  0  0  0  0  0  0  0
    7.3346   -0.8799    0.0000 H   0  0  0  0  0  0  0  0  0  0  0  0
    8.1316   -0.8799    0.0000 H   0  0  0  0  0  0  0  0  0  0  0  0
   14.2628   -0.8799    0.0000 H   0  0  0  0  0  0  0  0  0  0  0  0
   15.0598   -0.8799    0.0000 H   0  0  0  0  0  0  0  0  0  0  0  0
    7.2656    0.5699    0.0000 H   0  0  0  0  0  0  0  0  0  0  0  0
    6.4685    0.5699    0.0000 H   0  0  0  0  0  0  0  0  0  0  0  0
   15.9258    0.5699    0.0000 H   0  0  0  0  0  0  0  0  0  0  0  0
   15.1288    0.5699    0.0000 H   0  0  0  0  0  0  0  0  0  0  0  0
    5.6025   -0.8799    0.0000 H   0  0  0  0  0  0  0  0  0  0  0  0
    6.3996   -0.8799    0.0000 H   0  0  0  0  0  0  0  0  0  0  0  0
   15.9948   -0.8799    0.0000 H   0  0  0  0  0  0  0  0  0  0  0  0
   16.7919   -0.8799    0.0000 H   0  0  0  0  0  0  0  0  0  0  0  0
    5.5335    0.5699    0.0000 H   0  0  0  0  0  0  0  0  0  0  0  0
    4.7365    0.5699    0.0000 H   0  0  0  0  0  0  0  0  0  0  0  0
   17.6579    0.5699    0.0000 H   0  0  0  0  0  0  0  0  0  0  0  0
   16.8608    0.5699    0.0000 H   0  0  0  0  0  0  0  0  0  0  0  0
    3.8705   -0.8799    0.0000 H   0  0  0  0  0  0  0  0  0  0  0  0
    4.6675   -0.8799    0.0000 H   0  0  0  0  0  0  0  0  0  0  0  0
   19.4589   -0.8799    0.0000 H   0  0  0  0  0  0  0  0  0  0  0  0
   20.2560   -0.8799    0.0000 H   0  0  0  0  0  0  0  0  0  0  0  0
   20.1865    0.4050    0.0000 H   0  0  0  0  0  0  0  0  0  0  0  0
   21.1910   -0.8799    0.0000 H   0  0  0  0  0  0  0  0  0  0  0  0
   21.9880   -0.8799    0.0000 H   0  0  0  0  0  0  0  0  0  0  0  0
    2.0000   -0.0950    0.0000 H   0  0  0  0  0  0  0  0  0  0  0  0
   21.2604    1.4050    0.0000 H   0  0  0  0  0  0  0  0  0  0  0  0
   22.9925   -0.2150    0.0000 H   0  0  0  0  0  0  0  0  0  0  0  0
  1 23  1  0  0  0  0
  1 25  1  0  0  0  0
  2 23  2  0  0  0  0
  3 24  1  0  0  0  0
  3 65  1  0  0  0  0
  4 24  2  0  0  0  0
  5 26  1  0  0  0  0
  5 66  1  0  0  0  0
  6 27  1  0  0  0  0
  6 67  1  0  0  0  0
  7  8  1  0  0  0  0
  7  9  1  0  0  0  0
  7 28  1  0  0  0  0
  7 29  1  0  0  0  0
  8 10  1  0  0  0  0
  8 30  1  0  0  0  0
  8 31  1  0  0  0  0
  9 11  1  0  0  0  0
  9 32  1  0  0  0  0
  9 33  1  0  0  0  0
 10 12  1  0  0  0  0
 10 34  1  0  0  0  0
 10 35  1  0  0  0  0
 11 13  1  0  0  0  0
 11 36  1  0  0  0  0
 11 37  1  0  0  0  0
 12 14  1  0  0  0  0
 12 38  1  0  0  0  0
 12 39  1  0  0  0  0
 13 15  1  0  0  0  0
 13 40  1  0  0  0  0
 13 41  1  0  0  0  0
 14 16  1  0  0  0  0
 14 42  1  0  0  0  0
 14 43  1  0  0  0  0
 15 17  1  0  0  0  0
 15 44  1  0  0  0  0
 15 45  1  0  0  0  0
 16 18  1  0  0  0  0
 16 46  1  0  0  0  0
 16 47  1  0  0  0  0
 17 19  1  0  0  0  0
 17 48  1  0  0  0  0
 17 49  1  0  0  0  0
 18 20  1  0  0  0  0
 18 50  1  0  0  0  0
 18 51  1  0  0  0  0
 19 21  1  0  0  0  0
 19 52  1  0  0  0  0
 19 53  1  0  0  0  0
 20 22  1  0  0  0  0
 20 54  1  0  0  0  0
 20 55  1  0  0  0  0
 21 23  1  0  0  0  0
 21 56  1  0  0  0  0
 21 57  1  0  0  0  0
 22 24  1  0  0  0  0
 22 58  1  0  0  0  0
 22 59  1  0  0  0  0
 25 26  1  0  0  0  0
 25 60  1  0  0  0  0
 25 61  1  0  0  0  0
 26 27  1  0  0  0  0
 26 62  1  0  0  0  0
 27 63  1  0  0  0  0
 27 64  1  0  0  0  0
M  END
> <PUBCHEM_COMPOUND_CID>
54139711

> <PUBCHEM_COMPOUND_CANONICALIZED>
1

> <PUBCHEM_CACTVS_COMPLEXITY>
359

> <PUBCHEM_CACTVS_HBOND_ACCEPTOR>
6

> <PUBCHEM_CACTVS_HBOND_DONOR>
3

> <PUBCHEM_CACTVS_ROTATABLE_BOND>
21

> <PUBCHEM_CACTVS_SUBSKEYS>
AAADcfB4OAAAAAAAAAAAAAAAAAAAAAAAAAAAAAAAAAAAAAAAAAAAGgAACAAACBSggAIACAAABgAIAACQCAAAAAAAAAAAAAEAAAABEBIAAAACQAAFAAADAAGIyKCAAAAAAAAAAAAAAAAAAAAAAAAAAAAAAA==

> <PUBCHEM_IUPAC_OPENEYE_NAME>
18-(2,3-dihydroxypropoxy)-18-oxo-octadecanoic acid

> <PUBCHEM_IUPAC_CAS_NAME>
18-(2,3-dihydroxypropoxy)-18-oxooctadecanoic acid

> <PUBCHEM_IUPAC_NAME_MARKUP>
18-(2,3-dihydroxypropoxy)-18-oxooctadecanoic acid

> <PUBCHEM_IUPAC_NAME>
18-(2,3-dihydroxypropoxy)-18-oxooctadecanoic acid

> <PUBCHEM_IUPAC_SYSTEMATIC_NAME>
18-[2,3-bis(oxidanyl)propoxy]-18-oxidanylidene-octadecanoic acid

> <PUBCHEM_IUPAC_TRADITIONAL_NAME>
18-glyceryloxy-18-keto-stearic acid

> <PUBCHEM_IUPAC_INCHI>
InChI=1S/C21H40O6/c22-17-19(23)18-27-21(26)16-14-12-10-8-6-4-2-1-3-5-7-9-11-13-15-20(24)25/h19,22-23H,1-18H2,(H,24,25)

> <PUBCHEM_IUPAC_INCHIKEY>
OAFQNONZGQZBSJ-UHFFFAOYSA-N

> <PUBCHEM_XLOGP3>
5.6

> <PUBCHEM_EXACT_MASS>
388.28248899

> <PUBCHEM_MOLECULAR_FORMULA>
C21H40O6

> <PUBCHEM_MOLECULAR_WEIGHT>
388.5

> <PUBCHEM_OPENEYE_CAN_SMILES>
C(CCCCCCCCC(=O)OCC(CO)O)CCCCCCCC(=O)O

> <PUBCHEM_OPENEYE_ISO_SMILES>
C(CCCCCCCCC(=O)OCC(CO)O)CCCCCCCC(=O)O

> <PUBCHEM_CACTVS_TPSA>
104

> <PUBCHEM_MONOISOTOPIC_WEIGHT>
388.28248899

> <PUBCHEM_TOTAL_CHARGE>
0

> <PUBCHEM_HEAVY_ATOM_COUNT>
27

> <PUBCHEM_ATOM_DEF_STEREO_COUNT>
0

> <PUBCHEM_ATOM_UDEF_STEREO_COUNT>
1

> <PUBCHEM_BOND_DEF_STEREO_COUNT>
0

> <PUBCHEM_BOND_UDEF_STEREO_COUNT>
0

> <PUBCHEM_ISOTOPIC_ATOM_COUNT>
0

> <PUBCHEM_COMPONENT_COUNT>
1

> <PUBCHEM_CACTVS_TAUTO_COUNT>
-1

> <PUBCHEM_COORDINATE_TYPE>
1
5
255

> <PUBCHEM_BONDANNOTATIONS>
26  5  3

$$$$
