 
  -OEChem-10192103592D

 25 25  0     1  0  0  0  0  0999 V2000
    3.6828   -1.0005    0.0000 O   0  0  0  0  0  0  0  0  0  0  0  0
    3.1828    1.1901    0.0000 C   0  0  0  0  0  0  0  0  0  0  0  0
    4.1828    1.1901    0.0000 C   0  0  0  0  0  0  0  0  0  0  0  0
    2.5593    0.4083    0.0000 C   0  0  0  0  0  0  0  0  0  0  0  0
    4.8063    0.4083    0.0000 C   0  0  0  0  0  0  0  0  0  0  0  0
    2.7818   -0.5666    0.0000 C   0  0  3  0  0  0  0  0  0  0  0  0
    4.5838   -0.5666    0.0000 C   0  0  3  0  0  0  0  0  0  0  0  0
    2.0000   -1.1901    0.0000 C   0  0  0  0  0  0  0  0  0  0  0  0
    5.3656   -1.1901    0.0000 C   0  0  0  0  0  0  0  0  0  0  0  0
    3.3208    1.7946    0.0000 H   0  0  0  0  0  0  0  0  0  0  0  0
    2.6242    1.4591    0.0000 H   0  0  0  0  0  0  0  0  0  0  0  0
    4.7414    1.4591    0.0000 H   0  0  0  0  0  0  0  0  0  0  0  0
    4.0448    1.7946    0.0000 H   0  0  0  0  0  0  0  0  0  0  0  0
    2.1728    0.8930    0.0000 H   0  0  0  0  0  0  0  0  0  0  0  0
    2.0007    0.1393    0.0000 H   0  0  0  0  0  0  0  0  0  0  0  0
    5.3649    0.1393    0.0000 H   0  0  0  0  0  0  0  0  0  0  0  0
    5.1928    0.8930    0.0000 H   0  0  0  0  0  0  0  0  0  0  0  0
    2.8512   -1.1827    0.0000 H   0  0  0  0  0  0  0  0  0  0  0  0
    4.5144   -1.1827    0.0000 H   0  0  0  0  0  0  0  0  0  0  0  0
    1.6134   -0.7054    0.0000 H   0  0  0  0  0  0  0  0  0  0  0  0
    1.5153   -1.5767    0.0000 H   0  0  0  0  0  0  0  0  0  0  0  0
    2.3866   -1.6749    0.0000 H   0  0  0  0  0  0  0  0  0  0  0  0
    4.9790   -1.6749    0.0000 H   0  0  0  0  0  0  0  0  0  0  0  0
    5.8503   -1.5767    0.0000 H   0  0  0  0  0  0  0  0  0  0  0  0
    5.7522   -0.7054    0.0000 H   0  0  0  0  0  0  0  0  0  0  0  0
  1  6  1  0  0  0  0
  1  7  1  0  0  0  0
  2  3  1  0  0  0  0
  2  4  1  0  0  0  0
  2 10  1  0  0  0  0
  2 11  1  0  0  0  0
  3  5  1  0  0  0  0
  3 12  1  0  0  0  0
  3 13  1  0  0  0  0
  4  6  1  0  0  0  0
  4 14  1  0  0  0  0
  4 15  1  0  0  0  0
  5  7  1  0  0  0  0
  5 16  1  0  0  0  0
  5 17  1  0  0  0  0
  6  8  1  0  0  0  0
  6 18  1  0  0  0  0
  7  9  1  0  0  0  0
  7 19  1  0  0  0  0
  8 20  1  0  0  0  0
  8 21  1  0  0  0  0
  8 22  1  0  0  0  0
  9 23  1  0  0  0  0
  9 24  1  0  0  0  0
  9 25  1  0  0  0  0
M  END
> <PUBCHEM_COMPOUND_CID>
123851341

> <PUBCHEM_COMPOUND_CANONICALIZED>
1

> <PUBCHEM_CACTVS_COMPLEXITY>
70.6

> <PUBCHEM_CACTVS_HBOND_ACCEPTOR>
1

> <PUBCHEM_CACTVS_HBOND_DONOR>
0

> <PUBCHEM_CACTVS_ROTATABLE_BOND>
0

> <PUBCHEM_CACTVS_SUBSKEYS>
AAADceBwIAAAAAAAAAAAAAAAAAAAAAAAAAAAAAAABIAAAAAAAAAAGgAAAAAACBSggAICAAAABAAAAAAAAAAAAAAAAAAAAAAAAAAAAAIAAAACAAAEAAAAAAGAwKAAAAAAAAAAAAAAAAAAAAAAAAAAAAAAAA==

> <PUBCHEM_IUPAC_OPENEYE_NAME>
2,7-dimethyloxepane

> <PUBCHEM_IUPAC_CAS_NAME>
2,7-dimethyloxepane

> <PUBCHEM_IUPAC_NAME_MARKUP>
2,7-dimethyloxepane

> <PUBCHEM_IUPAC_NAME>
2,7-dimethyloxepane

> <PUBCHEM_IUPAC_SYSTEMATIC_NAME>
2,7-dimethyloxepane

> <PUBCHEM_IUPAC_TRADITIONAL_NAME>
2,7-dimethyloxepane

> <PUBCHEM_IUPAC_INCHI>
InChI=1S/C8H16O/c1-7-5-3-4-6-8(2)9-7/h7-8H,3-6H2,1-2H3

> <PUBCHEM_IUPAC_INCHIKEY>
RROCQUKFRDFYEB-UHFFFAOYSA-N

> <PUBCHEM_XLOGP3>
1.9

> <PUBCHEM_EXACT_MASS>
128.120115130

> <PUBCHEM_MOLECULAR_FORMULA>
C8H16O

> <PUBCHEM_MOLECULAR_WEIGHT>
128.21

> <PUBCHEM_OPENEYE_CAN_SMILES>
CC1CCCCC(O1)C

> <PUBCHEM_OPENEYE_ISO_SMILES>
CC1CCCCC(O1)C

> <PUBCHEM_CACTVS_TPSA>
9.2

> <PUBCHEM_MONOISOTOPIC_WEIGHT>
128.120115130

> <PUBCHEM_TOTAL_CHARGE>
0

> <PUBCHEM_HEAVY_ATOM_COUNT>
9

> <PUBCHEM_ATOM_DEF_STEREO_COUNT>
0

> <PUBCHEM_ATOM_UDEF_STEREO_COUNT>
2

> <PUBCHEM_BOND_DEF_STEREO_COUNT>
0

> <PUBCHEM_BOND_UDEF_STEREO_COUNT>
0

> <PUBCHEM_ISOTOPIC_ATOM_COUNT>
0

> <PUBCHEM_COMPONENT_COUNT>
1

> <PUBCHEM_CACTVS_TAUTO_COUNT>
-1

> <PUBCHEM_COORDINATE_TYPE>
1
5
255

> <PUBCHEM_BONDANNOTATIONS>
6  8  3
7  9  3

$$$$
