 
  -OEChem-10192103462D

 40 41  0     1  0  0  0  0  0999 V2000
    6.8671   -0.2071    0.0000 O   0  0  0  0  0  0  0  0  0  0  0  0
    5.1350   -0.2071    0.0000 O   0  0  0  0  0  0  0  0  0  0  0  0
    5.1600    1.5000    0.0000 O   0  0  0  0  0  0  0  0  0  0  0  0
    6.8671    3.2071    0.0000 O   0  0  0  0  0  0  0  0  0  0  0  0
    9.0742    2.3660    0.0000 O   0  0  0  0  0  0  0  0  0  0  0  0
    6.8671   -2.2071    0.0000 O   0  0  0  0  0  0  0  0  0  0  0  0
    5.1350   -3.2071    0.0000 O   0  0  0  0  0  0  0  0  0  0  0  0
    3.4030   -2.2071    0.0000 O   0  0  0  0  0  0  0  0  0  0  0  0
    2.5369   -0.7071    0.0000 O   0  0  0  0  0  0  0  0  0  0  0  0
    7.5742    1.5000    0.0000 C   0  0  3  0  0  0  0  0  0  0  0  0
    6.8671    0.7929    0.0000 C   0  0  1  0  0  0  0  0  0  0  0  0
    6.1600    1.5000    0.0000 C   0  0  1  0  0  0  0  0  0  0  0  0
    6.8671    2.2071    0.0000 C   0  0  3  0  0  0  0  0  0  0  0  0
    6.0010   -0.7071    0.0000 C   0  0  1  0  0  0  0  0  0  0  0  0
    8.5742    1.5000    0.0000 C   0  0  0  0  0  0  0  0  0  0  0  0
    6.0010   -1.7071    0.0000 C   0  0  3  0  0  0  0  0  0  0  0  0
    5.1350   -2.2071    0.0000 C   0  0  2  0  0  0  0  0  0  0  0  0
    4.2690   -1.7071    0.0000 C   0  0  2  0  0  0  0  0  0  0  0  0
    4.2690   -0.7071    0.0000 C   0  0  3  0  0  0  0  0  0  0  0  0
    3.4030   -0.2071    0.0000 C   0  0  0  0  0  0  0  0  0  0  0  0
    7.8114    0.9272    0.0000 H   0  0  0  0  0  0  0  0  0  0  0  0
    7.4399    0.5556    0.0000 H   0  0  0  0  0  0  0  0  0  0  0  0
    5.9227    0.9272    0.0000 H   0  0  0  0  0  0  0  0  0  0  0  0
    7.4399    2.4444    0.0000 H   0  0  0  0  0  0  0  0  0  0  0  0
    6.0010   -0.0871    0.0000 H   0  0  0  0  0  0  0  0  0  0  0  0
    8.4665    0.8894    0.0000 H   0  0  0  0  0  0  0  0  0  0  0  0
    9.1568    1.2880    0.0000 H   0  0  0  0  0  0  0  0  0  0  0  0
    6.0010   -2.3271    0.0000 H   0  0  0  0  0  0  0  0  0  0  0  0
    4.5981   -2.5171    0.0000 H   0  0  0  0  0  0  0  0  0  0  0  0
    4.2690   -2.3271    0.0000 H   0  0  0  0  0  0  0  0  0  0  0  0
    4.2690   -0.0871    0.0000 H   0  0  0  0  0  0  0  0  0  0  0  0
    4.8500    2.0369    0.0000 H   0  0  0  0  0  0  0  0  0  0  0  0
    7.4040    3.5171    0.0000 H   0  0  0  0  0  0  0  0  0  0  0  0
    3.8015    0.2678    0.0000 H   0  0  0  0  0  0  0  0  0  0  0  0
    3.0044    0.2678    0.0000 H   0  0  0  0  0  0  0  0  0  0  0  0
    9.6942    2.3660    0.0000 H   0  0  0  0  0  0  0  0  0  0  0  0
    6.8671   -2.8271    0.0000 H   0  0  0  0  0  0  0  0  0  0  0  0
    4.5981   -3.5171    0.0000 H   0  0  0  0  0  0  0  0  0  0  0  0
    3.4030   -2.8271    0.0000 H   0  0  0  0  0  0  0  0  0  0  0  0
    2.0000   -0.3971    0.0000 H   0  0  0  0  0  0  0  0  0  0  0  0
 11  1  1  6  0  0  0
 14  1  1  6  0  0  0
  2 14  1  0  0  0  0
  2 19  1  0  0  0  0
 12  3  1  6  0  0  0
  3 32  1  0  0  0  0
  4 13  1  0  0  0  0
  4 33  1  0  0  0  0
  5 15  1  0  0  0  0
  5 36  1  0  0  0  0
  6 16  1  0  0  0  0
  6 37  1  0  0  0  0
 17  7  1  1  0  0  0
  7 38  1  0  0  0  0
 18  8  1  1  0  0  0
  8 39  1  0  0  0  0
  9 20  1  0  0  0  0
  9 40  1  0  0  0  0
 10 11  1  0  0  0  0
 10 13  1  0  0  0  0
 10 15  1  0  0  0  0
 10 21  1  0  0  0  0
 11 12  1  0  0  0  0
 11 22  1  0  0  0  0
 12 13  1  0  0  0  0
 12 23  1  0  0  0  0
 13 24  1  0  0  0  0
 14 16  1  0  0  0  0
 14 25  1  0  0  0  0
 15 26  1  0  0  0  0
 15 27  1  0  0  0  0
 16 17  1  0  0  0  0
 16 28  1  0  0  0  0
 17 18  1  0  0  0  0
 17 29  1  0  0  0  0
 18 19  1  0  0  0  0
 18 30  1  0  0  0  0
 19 20  1  0  0  0  0
 19 31  1  0  0  0  0
 20 34  1  0  0  0  0
 20 35  1  0  0  0  0
M  END
> <PUBCHEM_COMPOUND_CID>
90182108

> <PUBCHEM_COMPOUND_CANONICALIZED>
1

> <PUBCHEM_CACTVS_COMPLEXITY>
327

> <PUBCHEM_CACTVS_HBOND_ACCEPTOR>
9

> <PUBCHEM_CACTVS_HBOND_DONOR>
7

> <PUBCHEM_CACTVS_ROTATABLE_BOND>
4

> <PUBCHEM_CACTVS_SUBSKEYS>
AAADceBwPAAAAAAAAAAAAAAAAABgAAAAAAAkAAAAAAAAAAAAAAAAGgAACAAADRSwgAMACAAABgAAAAAAAAAAAAAAAAAAAAAAAAAREAIAAAAiQAAFAAAHAAHAYAwIAAAAAAAAAAAAAAAAAAAAAAAAAAAAAA==

> <PUBCHEM_IUPAC_OPENEYE_NAME>
(2S,4S,5R)-2-[(1S,2R)-2,3-dihydroxy-4-(hydroxymethyl)cyclobutoxy]-6-(hydroxymethyl)tetrahydropyran-3,4,5-triol

> <PUBCHEM_IUPAC_CAS_NAME>
(2S,4S,5R)-2-[(1S,2R)-2,3-dihydroxy-4-(hydroxymethyl)cyclobutyl]oxy-6-(hydroxymethyl)oxane-3,4,5-triol

> <PUBCHEM_IUPAC_NAME_MARKUP>
(2<I>S</I>,4<I>S</I>,5<I>R</I>)-2-[(1<I>S</I>,2<I>R</I>)-2,3-dihydroxy-4-(hydroxymethyl)cyclobutyl]oxy-6-(hydroxymethyl)oxane-3,4,5-triol

> <PUBCHEM_IUPAC_NAME>
(2S,4S,5R)-2-[(1S,2R)-2,3-dihydroxy-4-(hydroxymethyl)cyclobutyl]oxy-6-(hydroxymethyl)oxane-3,4,5-triol

> <PUBCHEM_IUPAC_SYSTEMATIC_NAME>
(3R,4S,6S)-2-(hydroxymethyl)-6-[(1S,4R)-2-(hydroxymethyl)-3,4-bis(oxidanyl)cyclobutyl]oxy-oxane-3,4,5-triol

> <PUBCHEM_IUPAC_TRADITIONAL_NAME>
(2S,4S,5R)-2-[(1S,2R)-2,3-dihydroxy-4-methylol-cyclobutoxy]-6-methylol-tetrahydropyran-3,4,5-triol

> <PUBCHEM_IUPAC_INCHI>
InChI=1S/C11H20O9/c12-1-3-5(14)8(17)10(3)20-11-9(18)7(16)6(15)4(2-13)19-11/h3-18H,1-2H2/t3?,4?,5?,6-,7-,8+,9?,10-,11+/m0/s1

> <PUBCHEM_IUPAC_INCHIKEY>
PGOHELINCXPWBW-HRMRXKNFSA-N

> <PUBCHEM_XLOGP3_AA>
-3.3

> <PUBCHEM_EXACT_MASS>
296.11073221

> <PUBCHEM_MOLECULAR_FORMULA>
C11H20O9

> <PUBCHEM_MOLECULAR_WEIGHT>
296.27

> <PUBCHEM_OPENEYE_CAN_SMILES>
C(C1C(C(C1OC2C(C(C(C(O2)CO)O)O)O)O)O)O

> <PUBCHEM_OPENEYE_ISO_SMILES>
C(C1[C@@H]([C@@H](C([C@H](O1)O[C@@H]2[C@@H](C(C2CO)O)O)O)O)O)O

> <PUBCHEM_CACTVS_TPSA>
160

> <PUBCHEM_MONOISOTOPIC_WEIGHT>
296.11073221

> <PUBCHEM_TOTAL_CHARGE>
0

> <PUBCHEM_HEAVY_ATOM_COUNT>
20

> <PUBCHEM_ATOM_DEF_STEREO_COUNT>
5

> <PUBCHEM_ATOM_UDEF_STEREO_COUNT>
4

> <PUBCHEM_BOND_DEF_STEREO_COUNT>
0

> <PUBCHEM_BOND_UDEF_STEREO_COUNT>
0

> <PUBCHEM_ISOTOPIC_ATOM_COUNT>
0

> <PUBCHEM_COMPONENT_COUNT>
1

> <PUBCHEM_CACTVS_TAUTO_COUNT>
-1

> <PUBCHEM_COORDINATE_TYPE>
1
5
255

> <PUBCHEM_BONDANNOTATIONS>
11  1  6
14  1  6
10  15  3
19  20  3
12  3  6
13  4  3
16  6  3
17  7  5
18  8  5

$$$$
