 
  -OEChem-10192103502D

 25 26  0     0  0  0  0  0  0999 V2000
    6.0682   -1.7327    0.0000 O   0  0  0  0  0  0  0  0  0  0  0  0
    7.8003    1.2673    0.0000 O   0  0  0  0  0  0  0  0  0  0  0  0
    2.5381   -1.7568    0.0000 O   0  0  0  0  0  0  0  0  0  0  0  0
    7.8003   -1.7327    0.0000 O   0  0  0  0  0  0  0  0  0  0  0  0
    5.2022   -0.2327    0.0000 C   0  0  0  0  0  0  0  0  0  0  0  0
    6.9343   -0.2327    0.0000 C   0  0  0  0  0  0  0  0  0  0  0  0
    5.2022   -1.2327    0.0000 C   0  0  0  0  0  0  0  0  0  0  0  0
    6.0682    0.2673    0.0000 C   0  0  0  0  0  0  0  0  0  0  0  0
    7.8003    0.2673    0.0000 C   0  0  0  0  0  0  0  0  0  0  0  0
    4.3083    0.3020    0.0000 C   0  0  0  0  0  0  0  0  0  0  0  0
    6.9343   -1.2327    0.0000 C   0  0  0  0  0  0  0  0  0  0  0  0
    4.3083   -1.7673    0.0000 C   0  0  0  0  0  0  0  0  0  0  0  0
    3.4022   -1.2535    0.0000 C   0  0  0  0  0  0  0  0  0  0  0  0
    3.4022   -0.2119    0.0000 C   0  0  0  0  0  0  0  0  0  0  0  0
    8.6663    1.7673    0.0000 C   0  0  0  0  0  0  0  0  0  0  0  0
    6.0682    0.8873    0.0000 H   0  0  0  0  0  0  0  0  0  0  0  0
    8.0124   -0.3153    0.0000 H   0  0  0  0  0  0  0  0  0  0  0  0
    8.4109    0.3750    0.0000 H   0  0  0  0  0  0  0  0  0  0  0  0
    4.3154    0.9220    0.0000 H   0  0  0  0  0  0  0  0  0  0  0  0
    4.3154   -2.3873    0.0000 H   0  0  0  0  0  0  0  0  0  0  0  0
    2.8665    0.1002    0.0000 H   0  0  0  0  0  0  0  0  0  0  0  0
    8.9763    1.2304    0.0000 H   0  0  0  0  0  0  0  0  0  0  0  0
    9.2033    2.0773    0.0000 H   0  0  0  0  0  0  0  0  0  0  0  0
    8.3563    2.3043    0.0000 H   0  0  0  0  0  0  0  0  0  0  0  0
    2.0000   -1.4489    0.0000 H   0  0  0  0  0  0  0  0  0  0  0  0
  1  7  1  0  0  0  0
  1 11  1  0  0  0  0
  2  9  1  0  0  0  0
  2 15  1  0  0  0  0
  3 13  1  0  0  0  0
  3 25  1  0  0  0  0
  4 11  2  0  0  0  0
  5  7  2  0  0  0  0
  5  8  1  0  0  0  0
  5 10  1  0  0  0  0
  6  8  2  0  0  0  0
  6  9  1  0  0  0  0
  6 11  1  0  0  0  0
  7 12  1  0  0  0  0
  8 16  1  0  0  0  0
  9 17  1  0  0  0  0
  9 18  1  0  0  0  0
 10 14  2  0  0  0  0
 10 19  1  0  0  0  0
 12 13  2  0  0  0  0
 12 20  1  0  0  0  0
 13 14  1  0  0  0  0
 14 21  1  0  0  0  0
 15 22  1  0  0  0  0
 15 23  1  0  0  0  0
 15 24  1  0  0  0  0
M  END
> <PUBCHEM_COMPOUND_CID>
25225816

> <PUBCHEM_COMPOUND_CANONICALIZED>
1

> <PUBCHEM_CACTVS_COMPLEXITY>
284

> <PUBCHEM_CACTVS_HBOND_ACCEPTOR>
4

> <PUBCHEM_CACTVS_HBOND_DONOR>
1

> <PUBCHEM_CACTVS_ROTATABLE_BOND>
2

> <PUBCHEM_CACTVS_SUBSKEYS>
AAADccBwOAAAAAAAAAAAAAAAAAAAAAAAAAAwQAAAAAAAAACBAAAAGgAACAAADASgmAIyDoAABgCIAiDSCAACCAAgIAAIiAEGCMgMJyaGMRqCeiCl4BUIuYeA4CwOIAAACAAIAABAAAAQABAAAAAAAAAAAA==

> <PUBCHEM_IUPAC_OPENEYE_NAME>
7-hydroxy-3-(methoxymethyl)chromen-2-one

> <PUBCHEM_IUPAC_CAS_NAME>
7-hydroxy-3-(methoxymethyl)-1-benzopyran-2-one

> <PUBCHEM_IUPAC_NAME_MARKUP>
7-hydroxy-3-(methoxymethyl)chromen-2-one

> <PUBCHEM_IUPAC_NAME>
7-hydroxy-3-(methoxymethyl)chromen-2-one

> <PUBCHEM_IUPAC_SYSTEMATIC_NAME>
3-(methoxymethyl)-7-oxidanyl-chromen-2-one

> <PUBCHEM_IUPAC_TRADITIONAL_NAME>
7-hydroxy-3-(methoxymethyl)coumarin

> <PUBCHEM_IUPAC_INCHI>
InChI=1S/C11H10O4/c1-14-6-8-4-7-2-3-9(12)5-10(7)15-11(8)13/h2-5,12H,6H2,1H3

> <PUBCHEM_IUPAC_INCHIKEY>
USRMJRMLQRJWAU-UHFFFAOYSA-N

> <PUBCHEM_XLOGP3_AA>
1.2

> <PUBCHEM_EXACT_MASS>
206.05790880

> <PUBCHEM_MOLECULAR_FORMULA>
C11H10O4

> <PUBCHEM_MOLECULAR_WEIGHT>
206.19

> <PUBCHEM_OPENEYE_CAN_SMILES>
COCC1=CC2=C(C=C(C=C2)O)OC1=O

> <PUBCHEM_OPENEYE_ISO_SMILES>
COCC1=CC2=C(C=C(C=C2)O)OC1=O

> <PUBCHEM_CACTVS_TPSA>
55.8

> <PUBCHEM_MONOISOTOPIC_WEIGHT>
206.05790880

> <PUBCHEM_TOTAL_CHARGE>
0

> <PUBCHEM_HEAVY_ATOM_COUNT>
15

> <PUBCHEM_ATOM_DEF_STEREO_COUNT>
0

> <PUBCHEM_ATOM_UDEF_STEREO_COUNT>
0

> <PUBCHEM_BOND_DEF_STEREO_COUNT>
0

> <PUBCHEM_BOND_UDEF_STEREO_COUNT>
0

> <PUBCHEM_ISOTOPIC_ATOM_COUNT>
0

> <PUBCHEM_COMPONENT_COUNT>
1

> <PUBCHEM_CACTVS_TAUTO_COUNT>
-1

> <PUBCHEM_COORDINATE_TYPE>
1
5
255

> <PUBCHEM_BONDANNOTATIONS>
1  11  8
1  7  8
10  14  8
12  13  8
13  14  8
5  10  8
5  7  8
5  8  8
6  11  8
6  8  8
7  12  8

$$$$
