 
  -OEChem-10192104092D

 18 19  0     1  0  0  0  0  0999 V2000
    6.5420    0.5000    0.0000 O   0  0  0  0  0  0  0  0  0  0  0  0
    3.8100   -0.5000    0.0000 O   0  0  0  0  0  0  0  0  0  0  0  0
    8.0420   -1.3660    0.0000 O   0  0  0  0  0  0  0  0  0  0  0  0
    2.3100    1.3660    0.0000 O   0  0  0  0  0  0  0  0  0  0  0  0
    6.5420   -2.2320    0.0000 O   0  0  0  0  0  0  0  0  0  0  0  0
    3.8100    2.2320    0.0000 O   0  0  0  0  0  0  0  0  0  0  0  0
    5.6760    0.0000    0.0000 C   0  0  2  0  0  0  0  0  0  0  0  0
    4.6760   -0.0000    0.0000 C   0  0  2  0  0  0  0  0  0  0  0  0
    6.5420   -0.5000    0.0000 C   0  0  1  0  0  0  0  0  0  0  0  0
    3.8100    0.5000    0.0000 C   0  0  1  0  0  0  0  0  0  0  0  0
    7.0420   -1.3660    0.0000 C   0  0  0  0  0  0  0  0  0  0  0  0
    3.3100    1.3660    0.0000 C   0  0  0  0  0  0  0  0  0  0  0  0
    5.5156    0.5989    0.0000 H   0  0  0  0  0  0  0  0  0  0  0  0
    4.8365   -0.5989    0.0000 H   0  0  0  0  0  0  0  0  0  0  0  0
    7.1409   -0.3395    0.0000 H   0  0  0  0  0  0  0  0  0  0  0  0
    3.2111    0.3395    0.0000 H   0  0  0  0  0  0  0  0  0  0  0  0
    8.3520   -1.9030    0.0000 H   0  0  0  0  0  0  0  0  0  0  0  0
    2.0000    1.9030    0.0000 H   0  0  0  0  0  0  0  0  0  0  0  0
  7  1  1  1  0  0  0
  1  9  1  0  0  0  0
  8  2  1  1  0  0  0
  2 10  1  0  0  0  0
  3 11  1  0  0  0  0
  3 17  1  0  0  0  0
  4 12  1  0  0  0  0
  4 18  1  0  0  0  0
  5 11  2  0  0  0  0
  6 12  2  0  0  0  0
  7  8  1  0  0  0  0
  7  9  1  0  0  0  0
  7 13  1  0  0  0  0
  8 10  1  0  0  0  0
  8 14  1  0  0  0  0
  9 11  1  6  0  0  0
  9 15  1  0  0  0  0
 10 12  1  6  0  0  0
 10 16  1  0  0  0  0
M  END
> <PUBCHEM_COMPOUND_CID>
11008413

> <PUBCHEM_COMPOUND_CANONICALIZED>
1

> <PUBCHEM_CACTVS_COMPLEXITY>
222

> <PUBCHEM_CACTVS_HBOND_ACCEPTOR>
6

> <PUBCHEM_CACTVS_HBOND_DONOR>
2

> <PUBCHEM_CACTVS_ROTATABLE_BOND>
3

> <PUBCHEM_CACTVS_SUBSKEYS>
AAADcYBgOAAAAAAAAAAAAAAAEiQAAAAAAAAAAAAAAAAAAAAAAAAAGgAACAAACBSggAIACAAABgAIAACQCAIAAAAAAAAAAAFAAAABABYAAAQCQAAFIAADAAHKbARAAAAAAAAAAAAAAAAAAAAAAAAAAAAAAA==

> <PUBCHEM_IUPAC_OPENEYE_NAME>
(2S,3R)-3-[(2R,3S)-3-carboxyoxiran-2-yl]oxirane-2-carboxylic acid

> <PUBCHEM_IUPAC_CAS_NAME>
(2S,3R)-3-[(2R,3S)-3-carboxy-2-oxiranyl]-2-oxiranecarboxylic acid

> <PUBCHEM_IUPAC_NAME_MARKUP>
(2<I>S</I>,3<I>R</I>)-3-[(2<I>R</I>,3<I>S</I>)-3-carboxyoxiran-2-yl]oxirane-2-carboxylic acid

> <PUBCHEM_IUPAC_NAME>
(2S,3R)-3-[(2R,3S)-3-carboxyoxiran-2-yl]oxirane-2-carboxylic acid

> <PUBCHEM_IUPAC_SYSTEMATIC_NAME>
(2S,3R)-3-[(2R,3S)-3-carboxyoxiran-2-yl]oxirane-2-carboxylic acid

> <PUBCHEM_IUPAC_TRADITIONAL_NAME>
(2S,3R)-3-[(2R,3S)-3-carboxyoxiran-2-yl]oxirane-2-carboxylic acid

> <PUBCHEM_IUPAC_INCHI>
InChI=1S/C6H6O6/c7-5(8)3-1(11-3)2-4(12-2)6(9)10/h1-4H,(H,7,8)(H,9,10)/t1-,2-,3+,4+/m1/s1

> <PUBCHEM_IUPAC_INCHIKEY>
IRDWPCCLUCUYGV-MMPJQOAZSA-N

> <PUBCHEM_XLOGP3_AA>
-1.1

> <PUBCHEM_EXACT_MASS>
174.01643791

> <PUBCHEM_MOLECULAR_FORMULA>
C6H6O6

> <PUBCHEM_MOLECULAR_WEIGHT>
174.11

> <PUBCHEM_OPENEYE_CAN_SMILES>
C1(C(O1)C(=O)O)C2C(O2)C(=O)O

> <PUBCHEM_OPENEYE_ISO_SMILES>
[C@H]1([C@H](O1)C(=O)O)[C@@H]2[C@H](O2)C(=O)O

> <PUBCHEM_CACTVS_TPSA>
99.7

> <PUBCHEM_MONOISOTOPIC_WEIGHT>
174.01643791

> <PUBCHEM_TOTAL_CHARGE>
0

> <PUBCHEM_HEAVY_ATOM_COUNT>
12

> <PUBCHEM_ATOM_DEF_STEREO_COUNT>
4

> <PUBCHEM_ATOM_UDEF_STEREO_COUNT>
0

> <PUBCHEM_BOND_DEF_STEREO_COUNT>
0

> <PUBCHEM_BOND_UDEF_STEREO_COUNT>
0

> <PUBCHEM_ISOTOPIC_ATOM_COUNT>
0

> <PUBCHEM_COMPONENT_COUNT>
1

> <PUBCHEM_CACTVS_TAUTO_COUNT>
-1

> <PUBCHEM_COORDINATE_TYPE>
1
5
255

> <PUBCHEM_BONDANNOTATIONS>
7  1  5
10  12  6
8  2  5
9  11  6

$$$$
