 
  -OEChem-10192104102D

 84 83  0     1  0  0  0  0  0999 V2000
    8.9282    1.7500    0.0000 O   0  0  0  0  0  0  0  0  0  0  0  0
   12.3923    1.7500    0.0000 O   0  0  0  0  0  0  0  0  0  0  0  0
    6.3301    0.2500    0.0000 O   0  0  0  0  0  0  0  0  0  0  0  0
    8.0622    0.2500    0.0000 O   0  0  0  0  0  0  0  0  0  0  0  0
   15.8564    1.7500    0.0000 O   0  0  0  0  0  0  0  0  0  0  0  0
   11.5263    0.2500    0.0000 O   0  0  0  0  0  0  0  0  0  0  0  0
   14.9904    0.2500    0.0000 O   0  0  0  0  0  0  0  0  0  0  0  0
   19.3205    1.7500    0.0000 O   0  0  0  0  0  0  0  0  0  0  0  0
   18.4545    0.2500    0.0000 O   0  0  0  0  0  0  0  0  0  0  0  0
   22.7846    1.7500    0.0000 O   0  0  0  0  0  0  0  0  0  0  0  0
   21.9186    0.2500    0.0000 O   0  0  0  0  0  0  0  0  0  0  0  0
    9.7942    1.2500    0.0000 C   0  0  3  0  0  0  0  0  0  0  0  0
    9.7942    0.2500    0.0000 C   0  0  0  0  0  0  0  0  0  0  0  0
    5.4641    1.7500    0.0000 C   0  0  0  0  0  0  0  0  0  0  0  0
    6.3301    1.2500    0.0000 C   0  0  3  0  0  0  0  0  0  0  0  0
    8.9282   -0.2500    0.0000 C   0  0  0  0  0  0  0  0  0  0  0  0
   10.6603    1.7500    0.0000 C   0  0  0  0  0  0  0  0  0  0  0  0
    4.5981    1.2500    0.0000 C   0  0  0  0  0  0  0  0  0  0  0  0
    7.1962    1.7500    0.0000 C   0  0  0  0  0  0  0  0  0  0  0  0
    3.7320    1.7500    0.0000 C   0  0  0  0  0  0  0  0  0  0  0  0
    8.9282   -1.2500    0.0000 C   0  0  0  0  0  0  0  0  0  0  0  0
   13.2583    1.2500    0.0000 C   0  0  3  0  0  0  0  0  0  0  0  0
    8.0622    1.2500    0.0000 C   0  0  0  0  0  0  0  0  0  0  0  0
   11.5263    1.2500    0.0000 C   0  0  0  0  0  0  0  0  0  0  0  0
    2.8660    1.2500    0.0000 C   0  0  0  0  0  0  0  0  0  0  0  0
   13.2583    0.2500    0.0000 C   0  0  0  0  0  0  0  0  0  0  0  0
   14.1244    1.7500    0.0000 C   0  0  0  0  0  0  0  0  0  0  0  0
    8.0622   -1.7500    0.0000 C   0  0  0  0  0  0  0  0  0  0  0  0
    2.0000    1.7500    0.0000 C   0  0  0  0  0  0  0  0  0  0  0  0
   14.1244   -0.2500    0.0000 C   0  0  0  0  0  0  0  0  0  0  0  0
   14.9904    1.2500    0.0000 C   0  0  0  0  0  0  0  0  0  0  0  0
   16.7224    1.2500    0.0000 C   0  0  3  0  0  0  0  0  0  0  0  0
   17.5885    1.7500    0.0000 C   0  0  0  0  0  0  0  0  0  0  0  0
   16.7224    0.2500    0.0000 C   0  0  0  0  0  0  0  0  0  0  0  0
   18.4545    1.2500    0.0000 C   0  0  0  0  0  0  0  0  0  0  0  0
   20.1865    1.2500    0.0000 C   0  0  0  0  0  0  0  0  0  0  0  0
   21.0526    1.7500    0.0000 C   0  0  0  0  0  0  0  0  0  0  0  0
   21.9186    1.2500    0.0000 C   0  0  0  0  0  0  0  0  0  0  0  0
    9.2573    0.9400    0.0000 H   0  0  0  0  0  0  0  0  0  0  0  0
   10.0063   -0.3326    0.0000 H   0  0  0  0  0  0  0  0  0  0  0  0
   10.4048    0.3577    0.0000 H   0  0  0  0  0  0  0  0  0  0  0  0
    5.8626    2.2250    0.0000 H   0  0  0  0  0  0  0  0  0  0  0  0
    5.0656    2.2250    0.0000 H   0  0  0  0  0  0  0  0  0  0  0  0
    6.8671    0.9400    0.0000 H   0  0  0  0  0  0  0  0  0  0  0  0
    8.7162    0.3326    0.0000 H   0  0  0  0  0  0  0  0  0  0  0  0
    8.3176   -0.3577    0.0000 H   0  0  0  0  0  0  0  0  0  0  0  0
   11.0588    2.2250    0.0000 H   0  0  0  0  0  0  0  0  0  0  0  0
   10.2617    2.2250    0.0000 H   0  0  0  0  0  0  0  0  0  0  0  0
    4.1996    0.7751    0.0000 H   0  0  0  0  0  0  0  0  0  0  0  0
    4.9966    0.7751    0.0000 H   0  0  0  0  0  0  0  0  0  0  0  0
    7.5947    2.2250    0.0000 H   0  0  0  0  0  0  0  0  0  0  0  0
    6.7976    2.2250    0.0000 H   0  0  0  0  0  0  0  0  0  0  0  0
    4.1306    2.2250    0.0000 H   0  0  0  0  0  0  0  0  0  0  0  0
    3.3335    2.2250    0.0000 H   0  0  0  0  0  0  0  0  0  0  0  0
    9.1403   -1.8326    0.0000 H   0  0  0  0  0  0  0  0  0  0  0  0
    9.5388   -1.1423    0.0000 H   0  0  0  0  0  0  0  0  0  0  0  0
   13.2583    1.8700    0.0000 H   0  0  0  0  0  0  0  0  0  0  0  0
    2.4675    0.7751    0.0000 H   0  0  0  0  0  0  0  0  0  0  0  0
    3.2646    0.7751    0.0000 H   0  0  0  0  0  0  0  0  0  0  0  0
   12.6477    0.3577    0.0000 H   0  0  0  0  0  0  0  0  0  0  0  0
   13.0463   -0.3326    0.0000 H   0  0  0  0  0  0  0  0  0  0  0  0
   14.5229    2.2250    0.0000 H   0  0  0  0  0  0  0  0  0  0  0  0
   13.7258    2.2250    0.0000 H   0  0  0  0  0  0  0  0  0  0  0  0
    7.7522   -1.2131    0.0000 H   0  0  0  0  0  0  0  0  0  0  0  0
    7.5252   -2.0600    0.0000 H   0  0  0  0  0  0  0  0  0  0  0  0
    8.3722   -2.2869    0.0000 H   0  0  0  0  0  0  0  0  0  0  0  0
    5.7932   -0.0600    0.0000 H   0  0  0  0  0  0  0  0  0  0  0  0
    2.3100    2.2869    0.0000 H   0  0  0  0  0  0  0  0  0  0  0  0
    1.4631    2.0600    0.0000 H   0  0  0  0  0  0  0  0  0  0  0  0
    1.6900    1.2131    0.0000 H   0  0  0  0  0  0  0  0  0  0  0  0
   13.8144   -0.7869    0.0000 H   0  0  0  0  0  0  0  0  0  0  0  0
   14.6613   -0.5600    0.0000 H   0  0  0  0  0  0  0  0  0  0  0  0
   14.4344    0.2869    0.0000 H   0  0  0  0  0  0  0  0  0  0  0  0
   16.1855    0.9400    0.0000 H   0  0  0  0  0  0  0  0  0  0  0  0
   17.9870    2.2250    0.0000 H   0  0  0  0  0  0  0  0  0  0  0  0
   17.1899    2.2250    0.0000 H   0  0  0  0  0  0  0  0  0  0  0  0
   16.1024    0.2500    0.0000 H   0  0  0  0  0  0  0  0  0  0  0  0
   16.7224   -0.3700    0.0000 H   0  0  0  0  0  0  0  0  0  0  0  0
   17.3424    0.2500    0.0000 H   0  0  0  0  0  0  0  0  0  0  0  0
   19.7880    0.7751    0.0000 H   0  0  0  0  0  0  0  0  0  0  0  0
   20.5851    0.7751    0.0000 H   0  0  0  0  0  0  0  0  0  0  0  0
   21.4511    2.2250    0.0000 H   0  0  0  0  0  0  0  0  0  0  0  0
   20.6540    2.2250    0.0000 H   0  0  0  0  0  0  0  0  0  0  0  0
   23.3215    1.4400    0.0000 H   0  0  0  0  0  0  0  0  0  0  0  0
  1 12  1  0  0  0  0
  1 23  1  0  0  0  0
  2 22  1  0  0  0  0
  2 24  1  0  0  0  0
  3 15  1  0  0  0  0
  3 67  1  0  0  0  0
  4 23  2  0  0  0  0
  5 31  1  0  0  0  0
  5 32  1  0  0  0  0
  6 24  2  0  0  0  0
  7 31  2  0  0  0  0
  8 35  1  0  0  0  0
  8 36  1  0  0  0  0
  9 35  2  0  0  0  0
 10 38  1  0  0  0  0
 10 84  1  0  0  0  0
 11 38  2  0  0  0  0
 12 13  1  0  0  0  0
 12 17  1  0  0  0  0
 12 39  1  0  0  0  0
 13 16  1  0  0  0  0
 13 40  1  0  0  0  0
 13 41  1  0  0  0  0
 14 15  1  0  0  0  0
 14 18  1  0  0  0  0
 14 42  1  0  0  0  0
 14 43  1  0  0  0  0
 15 19  1  0  0  0  0
 15 44  1  0  0  0  0
 16 21  1  0  0  0  0
 16 45  1  0  0  0  0
 16 46  1  0  0  0  0
 17 24  1  0  0  0  0
 17 47  1  0  0  0  0
 17 48  1  0  0  0  0
 18 20  1  0  0  0  0
 18 49  1  0  0  0  0
 18 50  1  0  0  0  0
 19 23  1  0  0  0  0
 19 51  1  0  0  0  0
 19 52  1  0  0  0  0
 20 25  1  0  0  0  0
 20 53  1  0  0  0  0
 20 54  1  0  0  0  0
 21 28  1  0  0  0  0
 21 55  1  0  0  0  0
 21 56  1  0  0  0  0
 22 26  1  0  0  0  0
 22 27  1  0  0  0  0
 22 57  1  0  0  0  0
 25 29  1  0  0  0  0
 25 58  1  0  0  0  0
 25 59  1  0  0  0  0
 26 30  1  0  0  0  0
 26 60  1  0  0  0  0
 26 61  1  0  0  0  0
 27 31  1  0  0  0  0
 27 62  1  0  0  0  0
 27 63  1  0  0  0  0
 28 64  1  0  0  0  0
 28 65  1  0  0  0  0
 28 66  1  0  0  0  0
 29 68  1  0  0  0  0
 29 69  1  0  0  0  0
 29 70  1  0  0  0  0
 30 71  1  0  0  0  0
 30 72  1  0  0  0  0
 30 73  1  0  0  0  0
 32 33  1  0  0  0  0
 32 34  1  0  0  0  0
 32 74  1  0  0  0  0
 33 35  1  0  0  0  0
 33 75  1  0  0  0  0
 33 76  1  0  0  0  0
 34 77  1  0  0  0  0
 34 78  1  0  0  0  0
 34 79  1  0  0  0  0
 36 37  1  0  0  0  0
 36 80  1  0  0  0  0
 36 81  1  0  0  0  0
 37 38  1  0  0  0  0
 37 82  1  0  0  0  0
 37 83  1  0  0  0  0
M  END
> <PUBCHEM_COMPOUND_CID>
87327058

> <PUBCHEM_COMPOUND_CANONICALIZED>
1

> <PUBCHEM_CACTVS_COMPLEXITY>
722

> <PUBCHEM_CACTVS_HBOND_ACCEPTOR>
11

> <PUBCHEM_CACTVS_HBOND_DONOR>
2

> <PUBCHEM_CACTVS_ROTATABLE_BOND>
26

> <PUBCHEM_CACTVS_SUBSKEYS>
AAADcfB4PAAAAAAAAAAAAAAAAAAAAAAAAAAAAAAAAAAAAAAAAAAAGgAACAAACBSggAICCAAABgAIAACQCAAAAAAAAAAAAAEAAAAAEBYAAAACQAAFIAAAAAGIyKCAAAAAAAAAAAAAAAAAAAAAAAAAAAAAAA==

> <PUBCHEM_IUPAC_OPENEYE_NAME>
3-[3-[3-[3-(3-hydroxyoctanoyloxy)heptanoyloxy]pentanoyloxy]butanoyloxy]propanoic acid

> <PUBCHEM_IUPAC_CAS_NAME>
3-[3-[3-[3-(3-hydroxy-1-oxooctoxy)-1-oxoheptoxy]-1-oxopentoxy]-1-oxobutoxy]propanoic acid

> <PUBCHEM_IUPAC_NAME_MARKUP>
3-[3-[3-[3-(3-hydroxyoctanoyloxy)heptanoyloxy]pentanoyloxy]butanoyloxy]propanoic acid

> <PUBCHEM_IUPAC_NAME>
3-[3-[3-[3-(3-hydroxyoctanoyloxy)heptanoyloxy]pentanoyloxy]butanoyloxy]propanoic acid

> <PUBCHEM_IUPAC_SYSTEMATIC_NAME>
3-[3-[3-[3-(3-oxidanyloctanoyloxy)heptanoyloxy]pentanoyloxy]butanoyloxy]propanoic acid

> <PUBCHEM_IUPAC_TRADITIONAL_NAME>
3-[3-[3-[3-(3-hydroxyoctanoyloxy)heptanoyloxy]pentanoyloxy]butanoyloxy]propionic acid

> <PUBCHEM_IUPAC_INCHI>
InChI=1S/C27H46O11/c1-5-8-10-11-20(28)16-25(32)38-22(12-9-6-2)18-27(34)37-21(7-3)17-26(33)36-19(4)15-24(31)35-14-13-23(29)30/h19-22,28H,5-18H2,1-4H3,(H,29,30)

> <PUBCHEM_IUPAC_INCHIKEY>
GUCFVBJZXCPZMB-UHFFFAOYSA-N

> <PUBCHEM_XLOGP3_AA>
4

> <PUBCHEM_EXACT_MASS>
546.30401228

> <PUBCHEM_MOLECULAR_FORMULA>
C27H46O11

> <PUBCHEM_MOLECULAR_WEIGHT>
546.6

> <PUBCHEM_OPENEYE_CAN_SMILES>
CCCCCC(CC(=O)OC(CCCC)CC(=O)OC(CC)CC(=O)OC(C)CC(=O)OCCC(=O)O)O

> <PUBCHEM_OPENEYE_ISO_SMILES>
CCCCCC(CC(=O)OC(CCCC)CC(=O)OC(CC)CC(=O)OC(C)CC(=O)OCCC(=O)O)O

> <PUBCHEM_CACTVS_TPSA>
163

> <PUBCHEM_MONOISOTOPIC_WEIGHT>
546.30401228

> <PUBCHEM_TOTAL_CHARGE>
0

> <PUBCHEM_HEAVY_ATOM_COUNT>
38

> <PUBCHEM_ATOM_DEF_STEREO_COUNT>
0

> <PUBCHEM_ATOM_UDEF_STEREO_COUNT>
4

> <PUBCHEM_BOND_DEF_STEREO_COUNT>
0

> <PUBCHEM_BOND_UDEF_STEREO_COUNT>
0

> <PUBCHEM_ISOTOPIC_ATOM_COUNT>
0

> <PUBCHEM_COMPONENT_COUNT>
1

> <PUBCHEM_CACTVS_TAUTO_COUNT>
-1

> <PUBCHEM_COORDINATE_TYPE>
1
5
255

> <PUBCHEM_BONDANNOTATIONS>
12  13  3
22  26  3
15  3  3
32  34  3

$$$$
