 
  -OEChem-10192103512D

 68 67  0     1  0  0  0  0  0999 V2000
    9.4651    1.8450    0.0000 O   0  0  0  0  0  0  0  0  0  0  0  0
   12.0632    0.3450    0.0000 O   0  0  0  0  0  0  0  0  0  0  0  0
    6.0010    1.8450    0.0000 O   0  0  0  0  0  0  0  0  0  0  0  0
   10.3312    0.3450    0.0000 O   0  0  0  0  0  0  0  0  0  0  0  0
    6.8671    0.3450    0.0000 O   0  0  0  0  0  0  0  0  0  0  0  0
    4.2690    2.8450    0.0000 O   0  0  0  0  0  0  0  0  0  0  0  0
    2.5369    1.8450    0.0000 O   0  0  0  0  0  0  0  0  0  0  0  0
    8.5991    0.3450    0.0000 C   0  0  0  0  0  0  0  0  0  0  0  0
    8.5991    1.3450    0.0000 C   0  0  1  0  0  0  0  0  0  0  0  0
    7.7331   -0.1550    0.0000 C   0  0  0  0  0  0  0  0  0  0  0  0
    7.7331   -1.1550    0.0000 C   0  0  0  0  0  0  0  0  0  0  0  0
   12.9292    1.8450    0.0000 C   0  0  0  0  0  0  0  0  0  0  0  0
   12.0632    1.3450    0.0000 C   0  0  1  0  0  0  0  0  0  0  0  0
   13.7953    1.3450    0.0000 C   0  0  0  0  0  0  0  0  0  0  0  0
   14.6613    1.8450    0.0000 C   0  0  0  0  0  0  0  0  0  0  0  0
    6.8671   -1.6550    0.0000 C   0  0  0  0  0  0  0  0  0  0  0  0
    7.7331    1.8450    0.0000 C   0  0  0  0  0  0  0  0  0  0  0  0
   11.1972    1.8450    0.0000 C   0  0  0  0  0  0  0  0  0  0  0  0
   15.5273    1.3450    0.0000 C   0  0  0  0  0  0  0  0  0  0  0  0
   10.3312    1.3450    0.0000 C   0  0  0  0  0  0  0  0  0  0  0  0
    6.8671   -2.6550    0.0000 C   0  0  0  0  0  0  0  0  0  0  0  0
   16.3933    1.8450    0.0000 C   0  0  0  0  0  0  0  0  0  0  0  0
    6.8671    1.3450    0.0000 C   0  0  0  0  0  0  0  0  0  0  0  0
    6.0010   -3.1550    0.0000 C   0  0  0  0  0  0  0  0  0  0  0  0
   17.2594    1.3450    0.0000 C   0  0  0  0  0  0  0  0  0  0  0  0
    5.1350    1.3450    0.0000 C   0  0  0  0  0  0  0  0  0  0  0  0
    4.2690    1.8450    0.0000 C   0  0  2  0  0  0  0  0  0  0  0  0
    3.4030    1.3450    0.0000 C   0  0  0  0  0  0  0  0  0  0  0  0
    8.8112   -0.2376    0.0000 H   0  0  0  0  0  0  0  0  0  0  0  0
    9.2097    0.4527    0.0000 H   0  0  0  0  0  0  0  0  0  0  0  0
    8.5991    1.9650    0.0000 H   0  0  0  0  0  0  0  0  0  0  0  0
    7.5210    0.4276    0.0000 H   0  0  0  0  0  0  0  0  0  0  0  0
    7.1225   -0.2627    0.0000 H   0  0  0  0  0  0  0  0  0  0  0  0
    7.9451   -1.7376    0.0000 H   0  0  0  0  0  0  0  0  0  0  0  0
    8.3437   -1.0473    0.0000 H   0  0  0  0  0  0  0  0  0  0  0  0
   13.3278    2.3200    0.0000 H   0  0  0  0  0  0  0  0  0  0  0  0
   12.5307    2.3200    0.0000 H   0  0  0  0  0  0  0  0  0  0  0  0
   12.6002    1.0350    0.0000 H   0  0  0  0  0  0  0  0  0  0  0  0
   13.3967    0.8701    0.0000 H   0  0  0  0  0  0  0  0  0  0  0  0
   14.1938    0.8701    0.0000 H   0  0  0  0  0  0  0  0  0  0  0  0
   15.0598    2.3200    0.0000 H   0  0  0  0  0  0  0  0  0  0  0  0
   14.2628    2.3200    0.0000 H   0  0  0  0  0  0  0  0  0  0  0  0
    8.1316    2.3200    0.0000 H   0  0  0  0  0  0  0  0  0  0  0  0
    7.3346    2.3200    0.0000 H   0  0  0  0  0  0  0  0  0  0  0  0
    6.6550   -1.0724    0.0000 H   0  0  0  0  0  0  0  0  0  0  0  0
    6.2565   -1.7627    0.0000 H   0  0  0  0  0  0  0  0  0  0  0  0
   11.5957    2.3200    0.0000 H   0  0  0  0  0  0  0  0  0  0  0  0
   10.7987    2.3200    0.0000 H   0  0  0  0  0  0  0  0  0  0  0  0
   15.1288    0.8701    0.0000 H   0  0  0  0  0  0  0  0  0  0  0  0
   15.9258    0.8701    0.0000 H   0  0  0  0  0  0  0  0  0  0  0  0
    7.0791   -3.2376    0.0000 H   0  0  0  0  0  0  0  0  0  0  0  0
    7.4776   -2.5473    0.0000 H   0  0  0  0  0  0  0  0  0  0  0  0
   16.7919    2.3200    0.0000 H   0  0  0  0  0  0  0  0  0  0  0  0
   15.9948    2.3200    0.0000 H   0  0  0  0  0  0  0  0  0  0  0  0
   12.6002    0.0350    0.0000 H   0  0  0  0  0  0  0  0  0  0  0  0
    5.6910   -2.6181    0.0000 H   0  0  0  0  0  0  0  0  0  0  0  0
    5.4641   -3.4650    0.0000 H   0  0  0  0  0  0  0  0  0  0  0  0
    6.3110   -3.6919    0.0000 H   0  0  0  0  0  0  0  0  0  0  0  0
   16.9494    0.8081    0.0000 H   0  0  0  0  0  0  0  0  0  0  0  0
   17.7963    1.0350    0.0000 H   0  0  0  0  0  0  0  0  0  0  0  0
   17.5694    1.8819    0.0000 H   0  0  0  0  0  0  0  0  0  0  0  0
    4.7365    0.8701    0.0000 H   0  0  0  0  0  0  0  0  0  0  0  0
    5.5335    0.8701    0.0000 H   0  0  0  0  0  0  0  0  0  0  0  0
    4.8059    2.1550    0.0000 H   0  0  0  0  0  0  0  0  0  0  0  0
    3.0044    0.8701    0.0000 H   0  0  0  0  0  0  0  0  0  0  0  0
    3.8015    0.8701    0.0000 H   0  0  0  0  0  0  0  0  0  0  0  0
    3.7320    3.1550    0.0000 H   0  0  0  0  0  0  0  0  0  0  0  0
    2.0000    1.5350    0.0000 H   0  0  0  0  0  0  0  0  0  0  0  0
  9  1  1  1  0  0  0
  1 20  1  0  0  0  0
 13  2  1  6  0  0  0
  2 55  1  0  0  0  0
  3 23  1  0  0  0  0
  3 26  1  0  0  0  0
  4 20  2  0  0  0  0
  5 23  2  0  0  0  0
 27  6  1  6  0  0  0
  6 67  1  0  0  0  0
  7 28  1  0  0  0  0
  7 68  1  0  0  0  0
  8  9  1  0  0  0  0
  8 10  1  0  0  0  0
  8 29  1  0  0  0  0
  8 30  1  0  0  0  0
  9 17  1  0  0  0  0
  9 31  1  0  0  0  0
 10 11  1  0  0  0  0
 10 32  1  0  0  0  0
 10 33  1  0  0  0  0
 11 16  1  0  0  0  0
 11 34  1  0  0  0  0
 11 35  1  0  0  0  0
 12 13  1  0  0  0  0
 12 14  1  0  0  0  0
 12 36  1  0  0  0  0
 12 37  1  0  0  0  0
 13 18  1  0  0  0  0
 13 38  1  0  0  0  0
 14 15  1  0  0  0  0
 14 39  1  0  0  0  0
 14 40  1  0  0  0  0
 15 19  1  0  0  0  0
 15 41  1  0  0  0  0
 15 42  1  0  0  0  0
 16 21  1  0  0  0  0
 16 45  1  0  0  0  0
 16 46  1  0  0  0  0
 17 23  1  0  0  0  0
 17 43  1  0  0  0  0
 17 44  1  0  0  0  0
 18 20  1  0  0  0  0
 18 47  1  0  0  0  0
 18 48  1  0  0  0  0
 19 22  1  0  0  0  0
 19 49  1  0  0  0  0
 19 50  1  0  0  0  0
 21 24  1  0  0  0  0
 21 51  1  0  0  0  0
 21 52  1  0  0  0  0
 22 25  1  0  0  0  0
 22 53  1  0  0  0  0
 22 54  1  0  0  0  0
 24 56  1  0  0  0  0
 24 57  1  0  0  0  0
 24 58  1  0  0  0  0
 25 59  1  0  0  0  0
 25 60  1  0  0  0  0
 25 61  1  0  0  0  0
 26 27  1  0  0  0  0
 26 62  1  0  0  0  0
 26 63  1  0  0  0  0
 27 28  1  0  0  0  0
 27 64  1  0  0  0  0
 28 65  1  0  0  0  0
 28 66  1  0  0  0  0
M  END
> <PUBCHEM_COMPOUND_CID>
129602146

> <PUBCHEM_COMPOUND_CANONICALIZED>
1

> <PUBCHEM_CACTVS_COMPLEXITY>
400

> <PUBCHEM_CACTVS_HBOND_ACCEPTOR>
7

> <PUBCHEM_CACTVS_HBOND_DONOR>
3

> <PUBCHEM_CACTVS_ROTATABLE_BOND>
20

> <PUBCHEM_CACTVS_SUBSKEYS>
AAADcfB4OAAAAAAAAAAAAAAAAAAAAAAAAAAAAAAAAAAAAAAAAAAAGgAACAAACBSggAICCAAABgAIAACQCAAAAAAAAAAAAAEAAAABEBYAAAACQAAFIAADAAGIyKCAAAAAAAAAAAAAAAAAAAAAAAAAAAAAAA==

> <PUBCHEM_IUPAC_OPENEYE_NAME>
[(1S)-1-[2-[(2S)-2,3-dihydroxypropoxy]-2-oxo-ethyl]heptyl] (3S)-3-hydroxynonanoate

> <PUBCHEM_IUPAC_CAS_NAME>
(3S)-3-hydroxynonanoic acid [(3S)-1-[(2S)-2,3-dihydroxypropoxy]-1-oxononan-3-yl] ester

> <PUBCHEM_IUPAC_NAME_MARKUP>
[(3<I>S</I>)-1-[(2<I>S</I>)-2,3-dihydroxypropoxy]-1-oxononan-3-yl] (3<I>S</I>)-3-hydroxynonanoate

> <PUBCHEM_IUPAC_NAME>
[(3S)-1-[(2S)-2,3-dihydroxypropoxy]-1-oxononan-3-yl] (3S)-3-hydroxynonanoate

> <PUBCHEM_IUPAC_SYSTEMATIC_NAME>
[(3S)-1-[(2S)-2,3-bis(oxidanyl)propoxy]-1-oxidanylidene-nonan-3-yl] (3S)-3-oxidanylnonanoate

> <PUBCHEM_IUPAC_TRADITIONAL_NAME>
(3S)-3-hydroxypelargonic acid [(1S)-1-[2-[(2S)-2,3-dihydroxypropoxy]-2-keto-ethyl]heptyl] ester

> <PUBCHEM_IUPAC_INCHI>
InChI=1S/C21H40O7/c1-3-5-7-9-11-17(23)13-21(26)28-19(12-10-8-6-4-2)14-20(25)27-16-18(24)15-22/h17-19,22-24H,3-16H2,1-2H3/t17-,18-,19-/m0/s1

> <PUBCHEM_IUPAC_INCHIKEY>
GZABXBHVYJHMBS-FHWLQOOXSA-N

> <PUBCHEM_XLOGP3_AA>
3.8

> <PUBCHEM_EXACT_MASS>
404.27740361

> <PUBCHEM_MOLECULAR_FORMULA>
C21H40O7

> <PUBCHEM_MOLECULAR_WEIGHT>
404.5

> <PUBCHEM_OPENEYE_CAN_SMILES>
CCCCCCC(CC(=O)OC(CCCCCC)CC(=O)OCC(CO)O)O

> <PUBCHEM_OPENEYE_ISO_SMILES>
CCCCCC[C@@H](CC(=O)O[C@@H](CCCCCC)CC(=O)OC[C@H](CO)O)O

> <PUBCHEM_CACTVS_TPSA>
113

> <PUBCHEM_MONOISOTOPIC_WEIGHT>
404.27740361

> <PUBCHEM_TOTAL_CHARGE>
0

> <PUBCHEM_HEAVY_ATOM_COUNT>
28

> <PUBCHEM_ATOM_DEF_STEREO_COUNT>
3

> <PUBCHEM_ATOM_UDEF_STEREO_COUNT>
0

> <PUBCHEM_BOND_DEF_STEREO_COUNT>
0

> <PUBCHEM_BOND_UDEF_STEREO_COUNT>
0

> <PUBCHEM_ISOTOPIC_ATOM_COUNT>
0

> <PUBCHEM_COMPONENT_COUNT>
1

> <PUBCHEM_CACTVS_TAUTO_COUNT>
-1

> <PUBCHEM_COORDINATE_TYPE>
1
5
255

> <PUBCHEM_BONDANNOTATIONS>
9  1  5
13  2  6
27  6  6

$$$$
