 
  -OEChem-10192104112D

 30 29  0     1  0  0  0  0  0999 V2000
    5.1350    2.5950    0.0000 O   0  0  0  0  0  0  0  0  0  0  0  0
    2.5369    1.0950    0.0000 O   0  0  0  0  0  0  0  0  0  0  0  0
    3.4030    2.5950    0.0000 O   0  0  0  0  0  0  0  0  0  0  0  0
    6.8671    1.5950    0.0000 O   0  0  0  0  0  0  0  0  0  0  0  0
    6.0010    0.0950    0.0000 O   0  0  0  0  0  0  0  0  0  0  0  0
    4.2690    0.0950    0.0000 C   0  0  0  0  0  0  0  0  0  0  0  0
    4.2690    1.0950    0.0000 C   0  0  2  0  0  0  0  0  0  0  0  0
    3.4030   -0.4050    0.0000 C   0  0  0  0  0  0  0  0  0  0  0  0
    3.4030   -1.4050    0.0000 C   0  0  0  0  0  0  0  0  0  0  0  0
    5.1350    1.5950    0.0000 C   0  0  1  0  0  0  0  0  0  0  0  0
    2.5369   -1.9050    0.0000 C   0  0  0  0  0  0  0  0  0  0  0  0
    3.4030    1.5950    0.0000 C   0  0  0  0  0  0  0  0  0  0  0  0
    6.0010    1.0950    0.0000 C   0  0  0  0  0  0  0  0  0  0  0  0
    2.5369   -2.9050    0.0000 C   0  0  0  0  0  0  0  0  0  0  0  0
    4.4810   -0.4876    0.0000 H   0  0  0  0  0  0  0  0  0  0  0  0
    4.8796    0.2027    0.0000 H   0  0  0  0  0  0  0  0  0  0  0  0
    4.8059    1.4050    0.0000 H   0  0  0  0  0  0  0  0  0  0  0  0
    3.1909    0.1776    0.0000 H   0  0  0  0  0  0  0  0  0  0  0  0
    2.7924   -0.5127    0.0000 H   0  0  0  0  0  0  0  0  0  0  0  0
    3.6150   -1.9876    0.0000 H   0  0  0  0  0  0  0  0  0  0  0  0
    4.0135   -1.2973    0.0000 H   0  0  0  0  0  0  0  0  0  0  0  0
    5.6720    1.9050    0.0000 H   0  0  0  0  0  0  0  0  0  0  0  0
    2.3249   -1.3224    0.0000 H   0  0  0  0  0  0  0  0  0  0  0  0
    1.9264   -2.0127    0.0000 H   0  0  0  0  0  0  0  0  0  0  0  0
    1.9169   -2.9050    0.0000 H   0  0  0  0  0  0  0  0  0  0  0  0
    2.5369   -3.5250    0.0000 H   0  0  0  0  0  0  0  0  0  0  0  0
    3.1569   -2.9050    0.0000 H   0  0  0  0  0  0  0  0  0  0  0  0
    5.6720    2.9050    0.0000 H   0  0  0  0  0  0  0  0  0  0  0  0
    2.0000    1.4050    0.0000 H   0  0  0  0  0  0  0  0  0  0  0  0
    7.4040    1.2850    0.0000 H   0  0  0  0  0  0  0  0  0  0  0  0
 10  1  1  6  0  0  0
  1 28  1  0  0  0  0
  2 12  1  0  0  0  0
  2 29  1  0  0  0  0
  3 12  2  0  0  0  0
  4 13  1  0  0  0  0
  4 30  1  0  0  0  0
  5 13  2  0  0  0  0
  7  6  1  1  0  0  0
  6  8  1  0  0  0  0
  6 15  1  0  0  0  0
  6 16  1  0  0  0  0
  7 10  1  0  0  0  0
  7 12  1  0  0  0  0
  7 17  1  0  0  0  0
  8  9  1  0  0  0  0
  8 18  1  0  0  0  0
  8 19  1  0  0  0  0
  9 11  1  0  0  0  0
  9 20  1  0  0  0  0
  9 21  1  0  0  0  0
 10 13  1  0  0  0  0
 10 22  1  0  0  0  0
 11 14  1  0  0  0  0
 11 23  1  0  0  0  0
 11 24  1  0  0  0  0
 14 25  1  0  0  0  0
 14 26  1  0  0  0  0
 14 27  1  0  0  0  0
M  END
> <PUBCHEM_COMPOUND_CID>
10822044

> <PUBCHEM_COMPOUND_CANONICALIZED>
1

> <PUBCHEM_CACTVS_COMPLEXITY>
201

> <PUBCHEM_CACTVS_HBOND_ACCEPTOR>
5

> <PUBCHEM_CACTVS_HBOND_DONOR>
3

> <PUBCHEM_CACTVS_ROTATABLE_BOND>
7

> <PUBCHEM_CACTVS_SUBSKEYS>
AAADceBwOAAAAAAAAAAAAAAAAAAAAAAAAAAAAAAAAAAAAAAAAAAAGgAACAAADRSggAICCAAAAgAIAACQCAIAAAAAAAAAAAFAAAABEBYAAAAAQAAFIAABAAHLyOCOAAAAAAAAAAAAAAAAAAAAAAAAAAAAAA==

> <PUBCHEM_IUPAC_OPENEYE_NAME>
(2S,3R)-2-hydroxy-3-pentyl-butanedioic acid

> <PUBCHEM_IUPAC_CAS_NAME>
(2S,3R)-2-hydroxy-3-pentylbutanedioic acid

> <PUBCHEM_IUPAC_NAME_MARKUP>
(2<I>S</I>,3<I>R</I>)-2-hydroxy-3-pentylbutanedioic acid

> <PUBCHEM_IUPAC_NAME>
(2S,3R)-2-hydroxy-3-pentylbutanedioic acid

> <PUBCHEM_IUPAC_SYSTEMATIC_NAME>
(2S,3R)-2-oxidanyl-3-pentyl-butanedioic acid

> <PUBCHEM_IUPAC_TRADITIONAL_NAME>
(2R,3S)-2-amyl-3-hydroxy-succinic acid

> <PUBCHEM_IUPAC_INCHI>
InChI=1S/C9H16O5/c1-2-3-4-5-6(8(11)12)7(10)9(13)14/h6-7,10H,2-5H2,1H3,(H,11,12)(H,13,14)/t6-,7+/m1/s1

> <PUBCHEM_IUPAC_INCHIKEY>
QRXKEYMWUCJOKS-RQJHMYQMSA-N

> <PUBCHEM_XLOGP3_AA>
1.2

> <PUBCHEM_EXACT_MASS>
204.09977361

> <PUBCHEM_MOLECULAR_FORMULA>
C9H16O5

> <PUBCHEM_MOLECULAR_WEIGHT>
204.22

> <PUBCHEM_OPENEYE_CAN_SMILES>
CCCCCC(C(C(=O)O)O)C(=O)O

> <PUBCHEM_OPENEYE_ISO_SMILES>
CCCCC[C@H]([C@@H](C(=O)O)O)C(=O)O

> <PUBCHEM_CACTVS_TPSA>
94.8

> <PUBCHEM_MONOISOTOPIC_WEIGHT>
204.09977361

> <PUBCHEM_TOTAL_CHARGE>
0

> <PUBCHEM_HEAVY_ATOM_COUNT>
14

> <PUBCHEM_ATOM_DEF_STEREO_COUNT>
2

> <PUBCHEM_ATOM_UDEF_STEREO_COUNT>
0

> <PUBCHEM_BOND_DEF_STEREO_COUNT>
0

> <PUBCHEM_BOND_UDEF_STEREO_COUNT>
0

> <PUBCHEM_ISOTOPIC_ATOM_COUNT>
0

> <PUBCHEM_COMPONENT_COUNT>
1

> <PUBCHEM_CACTVS_TAUTO_COUNT>
-1

> <PUBCHEM_COORDINATE_TYPE>
1
5
255

> <PUBCHEM_BONDANNOTATIONS>
10  1  6
7  6  5

$$$$
