 
  -OEChem-10192104242D

 82 84  0     1  0  0  0  0  0999 V2000
    6.3301   -2.9400    0.0000 O   0  0  0  0  0  0  0  0  0  0  0  0
    6.3301    0.0600    0.0000 O   0  0  0  0  0  0  0  0  0  0  0  0
    8.0622    0.0600    0.0000 O   0  0  0  0  0  0  0  0  0  0  0  0
    4.5981   -1.9400    0.0000 O   0  0  0  0  0  0  0  0  0  0  0  0
    8.0622   -1.9400    0.0000 O   0  0  0  0  0  0  0  0  0  0  0  0
    8.9282    2.5600    0.0000 O   0  0  0  0  0  0  0  0  0  0  0  0
    9.7942    4.0600    0.0000 O   0  0  0  0  0  0  0  0  0  0  0  0
   10.6603    1.5600    0.0000 O   0  0  0  0  0  0  0  0  0  0  0  0
    4.5981    1.0600    0.0000 O   0  0  0  0  0  0  0  0  0  0  0  0
   12.3923    2.5600    0.0000 O   0  0  0  0  0  0  0  0  0  0  0  0
   12.3923    4.5600    0.0000 O   0  0  0  0  0  0  0  0  0  0  0  0
    4.5981   -4.9400    0.0000 O   0  0  0  0  0  0  0  0  0  0  0  0
    6.3301   -4.9400    0.0000 O   0  0  0  0  0  0  0  0  0  0  0  0
    3.7320   -3.4400    0.0000 C   0  0  0  0  0  0  0  0  0  0  0  0
    6.3301   -1.9400    0.0000 C   0  0  1  0  0  0  0  0  0  0  0  0
    3.7320   -4.4400    0.0000 C   0  0  0  0  0  0  0  0  0  0  0  0
    2.8660   -2.9400    0.0000 C   0  0  0  0  0  0  0  0  0  0  0  0
    4.5981   -2.9400    0.0000 C   0  0  0  0  0  0  0  0  0  0  0  0
    5.4641   -1.4400    0.0000 C   0  0  2  0  0  0  0  0  0  0  0  0
    7.1962   -1.4400    0.0000 C   0  0  1  0  0  0  0  0  0  0  0  0
    2.8660   -4.9400    0.0000 C   0  0  0  0  0  0  0  0  0  0  0  0
    2.0000   -3.4400    0.0000 C   0  0  0  0  0  0  0  0  0  0  0  0
    5.4641   -3.4400    0.0000 C   0  0  1  0  0  0  0  0  0  0  0  0
    2.0000   -4.4400    0.0000 C   0  0  0  0  0  0  0  0  0  0  0  0
    5.4641   -0.4400    0.0000 C   0  0  1  0  0  0  0  0  0  0  0  0
    7.1962   -0.4400    0.0000 C   0  0  2  0  0  0  0  0  0  0  0  0
    8.0622    1.0600    0.0000 C   0  0  1  0  0  0  0  0  0  0  0  0
    4.5981    0.0600    0.0000 C   0  0  0  0  0  0  0  0  0  0  0  0
    9.7942    3.0600    0.0000 C   0  0  1  0  0  0  0  0  0  0  0  0
   10.6603    2.5600    0.0000 C   0  0  2  0  0  0  0  0  0  0  0  0
   11.5263    3.0600    0.0000 C   0  0  1  0  0  0  0  0  0  0  0  0
    8.9282    1.5600    0.0000 C   0  0  3  0  0  0  0  0  0  0  0  0
   11.5263    4.0600    0.0000 C   0  0  2  0  0  0  0  0  0  0  0  0
   10.6603    4.5600    0.0000 C   0  0  1  0  0  0  0  0  0  0  0  0
    5.4641   -4.4400    0.0000 C   0  0  0  0  0  0  0  0  0  0  0  0
    7.1962    1.5600    0.0000 C   0  0  0  0  0  0  0  0  0  0  0  0
    9.7942    1.0600    0.0000 C   0  0  0  0  0  0  0  0  0  0  0  0
   10.6603    5.5600    0.0000 C   0  0  0  0  0  0  0  0  0  0  0  0
    3.7320   -2.8200    0.0000 H   0  0  0  0  0  0  0  0  0  0  0  0
    5.7932   -2.2500    0.0000 H   0  0  0  0  0  0  0  0  0  0  0  0
    3.9441   -5.0226    0.0000 H   0  0  0  0  0  0  0  0  0  0  0  0
    4.3426   -4.3323    0.0000 H   0  0  0  0  0  0  0  0  0  0  0  0
    3.2646   -2.4651    0.0000 H   0  0  0  0  0  0  0  0  0  0  0  0
    2.4675   -2.4651    0.0000 H   0  0  0  0  0  0  0  0  0  0  0  0
    4.9966   -2.4651    0.0000 H   0  0  0  0  0  0  0  0  0  0  0  0
    4.1996   -2.4651    0.0000 H   0  0  0  0  0  0  0  0  0  0  0  0
    5.4641   -2.0600    0.0000 H   0  0  0  0  0  0  0  0  0  0  0  0
    7.1962   -2.0600    0.0000 H   0  0  0  0  0  0  0  0  0  0  0  0
    2.4675   -5.4150    0.0000 H   0  0  0  0  0  0  0  0  0  0  0  0
    3.2646   -5.4150    0.0000 H   0  0  0  0  0  0  0  0  0  0  0  0
    1.7880   -2.8574    0.0000 H   0  0  0  0  0  0  0  0  0  0  0  0
    1.3894   -3.5477    0.0000 H   0  0  0  0  0  0  0  0  0  0  0  0
    5.4641   -2.8200    0.0000 H   0  0  0  0  0  0  0  0  0  0  0  0
    1.3894   -4.3323    0.0000 H   0  0  0  0  0  0  0  0  0  0  0  0
    1.7880   -5.0226    0.0000 H   0  0  0  0  0  0  0  0  0  0  0  0
    5.4641    0.1800    0.0000 H   0  0  0  0  0  0  0  0  0  0  0  0
    7.7331   -0.7500    0.0000 H   0  0  0  0  0  0  0  0  0  0  0  0
    7.5252    0.7500    0.0000 H   0  0  0  0  0  0  0  0  0  0  0  0
   11.1972    2.2500    0.0000 H   0  0  0  0  0  0  0  0  0  0  0  0
    9.2573    3.3700    0.0000 H   0  0  0  0  0  0  0  0  0  0  0  0
    3.9875    0.1677    0.0000 H   0  0  0  0  0  0  0  0  0  0  0  0
    4.3860   -0.5226    0.0000 H   0  0  0  0  0  0  0  0  0  0  0  0
   11.5263    2.4400    0.0000 H   0  0  0  0  0  0  0  0  0  0  0  0
    9.4651    1.8700    0.0000 H   0  0  0  0  0  0  0  0  0  0  0  0
   12.0632    3.7500    0.0000 H   0  0  0  0  0  0  0  0  0  0  0  0
   10.1233    4.8700    0.0000 H   0  0  0  0  0  0  0  0  0  0  0  0
    4.0611   -1.6300    0.0000 H   0  0  0  0  0  0  0  0  0  0  0  0
    8.5991   -1.6300    0.0000 H   0  0  0  0  0  0  0  0  0  0  0  0
    7.5062    2.0969    0.0000 H   0  0  0  0  0  0  0  0  0  0  0  0
    6.6592    1.8700    0.0000 H   0  0  0  0  0  0  0  0  0  0  0  0
    6.8862    1.0231    0.0000 H   0  0  0  0  0  0  0  0  0  0  0  0
    9.4842    0.5231    0.0000 H   0  0  0  0  0  0  0  0  0  0  0  0
   10.3312    0.7500    0.0000 H   0  0  0  0  0  0  0  0  0  0  0  0
   10.1042    1.5969    0.0000 H   0  0  0  0  0  0  0  0  0  0  0  0
   11.2803    5.5600    0.0000 H   0  0  0  0  0  0  0  0  0  0  0  0
   10.6603    6.1800    0.0000 H   0  0  0  0  0  0  0  0  0  0  0  0
   10.0403    5.5600    0.0000 H   0  0  0  0  0  0  0  0  0  0  0  0
   11.1972    1.2500    0.0000 H   0  0  0  0  0  0  0  0  0  0  0  0
   12.9292    2.8700    0.0000 H   0  0  0  0  0  0  0  0  0  0  0  0
    4.0611    1.3700    0.0000 H   0  0  0  0  0  0  0  0  0  0  0  0
   12.3923    5.1800    0.0000 H   0  0  0  0  0  0  0  0  0  0  0  0
    4.5981   -5.5600    0.0000 H   0  0  0  0  0  0  0  0  0  0  0  0
 15  1  1  1  0  0  0
 23  1  1  6  0  0  0
  2 25  1  0  0  0  0
  2 26  1  0  0  0  0
 26  3  1  6  0  0  0
 27  3  1  6  0  0  0
 19  4  1  1  0  0  0
  4 67  1  0  0  0  0
 20  5  1  1  0  0  0
  5 68  1  0  0  0  0
 29  6  1  1  0  0  0
  6 32  1  0  0  0  0
  7 29  1  0  0  0  0
  7 34  1  0  0  0  0
 30  8  1  6  0  0  0
  8 78  1  0  0  0  0
  9 28  1  0  0  0  0
  9 80  1  0  0  0  0
 31 10  1  1  0  0  0
 10 79  1  0  0  0  0
 33 11  1  6  0  0  0
 11 81  1  0  0  0  0
 12 35  1  0  0  0  0
 12 82  1  0  0  0  0
 13 35  2  0  0  0  0
 14 16  1  0  0  0  0
 14 17  1  0  0  0  0
 14 18  1  0  0  0  0
 14 39  1  0  0  0  0
 15 19  1  0  0  0  0
 15 20  1  0  0  0  0
 15 40  1  0  0  0  0
 16 21  1  0  0  0  0
 16 41  1  0  0  0  0
 16 42  1  0  0  0  0
 17 22  1  0  0  0  0
 17 43  1  0  0  0  0
 17 44  1  0  0  0  0
 18 23  1  0  0  0  0
 18 45  1  0  0  0  0
 18 46  1  0  0  0  0
 19 25  1  0  0  0  0
 19 47  1  0  0  0  0
 20 26  1  0  0  0  0
 20 48  1  0  0  0  0
 21 24  1  0  0  0  0
 21 49  1  0  0  0  0
 21 50  1  0  0  0  0
 22 24  1  0  0  0  0
 22 51  1  0  0  0  0
 22 52  1  0  0  0  0
 23 35  1  0  0  0  0
 23 53  1  0  0  0  0
 24 54  1  0  0  0  0
 24 55  1  0  0  0  0
 25 28  1  1  0  0  0
 25 56  1  0  0  0  0
 26 57  1  0  0  0  0
 27 32  1  0  0  0  0
 27 36  1  0  0  0  0
 27 58  1  0  0  0  0
 28 61  1  0  0  0  0
 28 62  1  0  0  0  0
 29 30  1  0  0  0  0
 29 60  1  0  0  0  0
 30 31  1  0  0  0  0
 30 59  1  0  0  0  0
 31 33  1  0  0  0  0
 31 63  1  0  0  0  0
 32 37  1  0  0  0  0
 32 64  1  0  0  0  0
 33 34  1  0  0  0  0
 33 65  1  0  0  0  0
 34 38  1  6  0  0  0
 34 66  1  0  0  0  0
 36 69  1  0  0  0  0
 36 70  1  0  0  0  0
 36 71  1  0  0  0  0
 37 72  1  0  0  0  0
 37 73  1  0  0  0  0
 37 74  1  0  0  0  0
 38 75  1  0  0  0  0
 38 76  1  0  0  0  0
 38 77  1  0  0  0  0
M  END
> <PUBCHEM_COMPOUND_CID>
101058556

> <PUBCHEM_COMPOUND_CANONICALIZED>
1

> <PUBCHEM_CACTVS_COMPLEXITY>
734

> <PUBCHEM_CACTVS_HBOND_ACCEPTOR>
13

> <PUBCHEM_CACTVS_HBOND_DONOR>
7

> <PUBCHEM_CACTVS_ROTATABLE_BOND>
11

> <PUBCHEM_CACTVS_SUBSKEYS>
AAADcfB4PAAAAAAAAAAAAAAAAAAAAAAAAAA0SIAAAAAAAAAAAAAAGgAACAAADRSwgAMCCAAABgAIAACQCAIAAAAAAAAAAAFAAAAREBIAAAQiQAAFAAAHAAHI6KyOAAAAAAAAAAAAAAAAAAAAAAAAAAAAAA==

> <PUBCHEM_IUPAC_OPENEYE_NAME>
(2S)-3-cyclohexyl-2-[(2R,3S,4S,5S,6S)-3,5-dihydroxy-2-(hydroxymethyl)-6-[(1R)-1-methyl-2-[(2R,3S,4R,5R,6R)-3,4,5-trihydroxy-6-methyl-tetrahydropyran-2-yl]oxy-propoxy]tetrahydropyran-4-yl]oxy-propanoic acid

> <PUBCHEM_IUPAC_CAS_NAME>
(2S)-3-cyclohexyl-2-[[(2R,3S,4S,5S,6S)-3,5-dihydroxy-2-(hydroxymethyl)-6-[(2R)-3-[[(2R,3S,4R,5R,6R)-3,4,5-trihydroxy-6-methyl-2-oxanyl]oxy]butan-2-yl]oxy-4-oxanyl]oxy]propanoic acid

> <PUBCHEM_IUPAC_NAME_MARKUP>
(2<I>S</I>)-3-cyclohexyl-2-[(2<I>R</I>,3<I>S</I>,4<I>S</I>,5<I>S</I>,6<I>S</I>)-3,5-dihydroxy-2-(hydroxymethyl)-6-[(2<I>R</I>)-3-[(2<I>R</I>,3<I>S</I>,4<I>R</I>,5<I>R</I>,6<I>R</I>)-3,4,5-trihydroxy-6-methyloxan-2-yl]oxybutan-2-yl]oxyoxan-4-yl]oxypropanoic acid

> <PUBCHEM_IUPAC_NAME>
(2S)-3-cyclohexyl-2-[(2R,3S,4S,5S,6S)-3,5-dihydroxy-2-(hydroxymethyl)-6-[(2R)-3-[(2R,3S,4R,5R,6R)-3,4,5-trihydroxy-6-methyloxan-2-yl]oxybutan-2-yl]oxyoxan-4-yl]oxypropanoic acid

> <PUBCHEM_IUPAC_SYSTEMATIC_NAME>
(2S)-3-cyclohexyl-2-[(2R,3S,4S,5S,6S)-2-(hydroxymethyl)-6-[(2R)-3-[(2R,3S,4R,5R,6R)-6-methyl-3,4,5-tris(oxidanyl)oxan-2-yl]oxybutan-2-yl]oxy-3,5-bis(oxidanyl)oxan-4-yl]oxy-propanoic acid

> <PUBCHEM_IUPAC_TRADITIONAL_NAME>
(2S)-3-cyclohexyl-2-[(2R,3S,4S,5S,6S)-3,5-dihydroxy-2-methylol-6-[(1R)-1-methyl-2-[(2R,3S,4R,5R,6R)-3,4,5-trihydroxy-6-methyl-tetrahydropyran-2-yl]oxy-propoxy]tetrahydropyran-4-yl]oxy-propionic acid

> <PUBCHEM_IUPAC_INCHI>
InChI=1S/C25H44O13/c1-11(34-24-20(30)19(29)17(27)13(3)36-24)12(2)35-25-21(31)22(18(28)16(10-26)38-25)37-15(23(32)33)9-14-7-5-4-6-8-14/h11-22,24-31H,4-10H2,1-3H3,(H,32,33)/t11?,12-,13-,15+,16-,17+,18+,19-,20+,21+,22+,24+,25+/m1/s1

> <PUBCHEM_IUPAC_INCHIKEY>
GSBQFAIWCHSNOH-OOTKWJENSA-N

> <PUBCHEM_XLOGP3_AA>
0.3

> <PUBCHEM_EXACT_MASS>
552.27819145

> <PUBCHEM_MOLECULAR_FORMULA>
C25H44O13

> <PUBCHEM_MOLECULAR_WEIGHT>
552.6

> <PUBCHEM_OPENEYE_CAN_SMILES>
CC1C(C(C(C(O1)OC(C)C(C)OC2C(C(C(C(O2)CO)O)OC(CC3CCCCC3)C(=O)O)O)O)O)O

> <PUBCHEM_OPENEYE_ISO_SMILES>
C[C@@H]1[C@@H]([C@H]([C@@H]([C@H](O1)OC(C)[C@@H](C)O[C@@H]2[C@H]([C@H]([C@H]([C@H](O2)CO)O)O[C@@H](CC3CCCCC3)C(=O)O)O)O)O)O

> <PUBCHEM_CACTVS_TPSA>
205

> <PUBCHEM_MONOISOTOPIC_WEIGHT>
552.27819145

> <PUBCHEM_TOTAL_CHARGE>
0

> <PUBCHEM_HEAVY_ATOM_COUNT>
38

> <PUBCHEM_ATOM_DEF_STEREO_COUNT>
12

> <PUBCHEM_ATOM_UDEF_STEREO_COUNT>
1

> <PUBCHEM_BOND_DEF_STEREO_COUNT>
0

> <PUBCHEM_BOND_UDEF_STEREO_COUNT>
0

> <PUBCHEM_ISOTOPIC_ATOM_COUNT>
0

> <PUBCHEM_COMPONENT_COUNT>
1

> <PUBCHEM_CACTVS_TAUTO_COUNT>
-1

> <PUBCHEM_COORDINATE_TYPE>
1
5
255

> <PUBCHEM_BONDANNOTATIONS>
15  1  5
23  1  6
31  10  5
33  11  6
25  28  5
26  3  6
27  3  6
32  37  3
34  38  6
19  4  5
20  5  5
29  6  5
30  8  6

$$$$
