 
  -OEChem-10192103292D

 68 72  0     1  0  0  0  0  0999 V2000
    8.2114    4.4767    0.0000 O   0  0  0  0  0  0  0  0  0  0  0  0
    5.5616    5.2504    0.0000 O   0  0  0  0  0  0  0  0  0  0  0  0
    5.9630    1.4549    0.0000 O   0  0  0  0  0  0  0  0  0  0  0  0
    7.7331    1.4722    0.0000 O   0  0  0  0  0  0  0  0  0  0  0  0
    9.0033    2.6402    0.0000 O   0  0  0  0  0  0  0  0  0  0  0  0
    6.8671   -0.0278    0.0000 O   0  0  0  0  0  0  0  0  0  0  0  0
    9.4651    0.4722    0.0000 O   0  0  0  0  0  0  0  0  0  0  0  0
    9.4651   -1.5278    0.0000 O   0  0  0  0  0  0  0  0  0  0  0  0
    7.7331   -2.5278    0.0000 O   0  0  0  0  0  0  0  0  0  0  0  0
    6.0010   -2.5278    0.0000 O   0  0  0  0  0  0  0  0  0  0  0  0
    4.2690   -2.5278    0.0000 O   0  0  0  0  0  0  0  0  0  0  0  0
    6.0010   -4.5278    0.0000 O   0  0  0  0  0  0  0  0  0  0  0  0
    4.2690   -5.5278    0.0000 O   0  0  0  0  0  0  0  0  0  0  0  0
    2.5369   -4.5278    0.0000 O   0  0  0  0  0  0  0  0  0  0  0  0
    2.5369   -1.5278    0.0000 O   0  0  0  0  0  0  0  0  0  0  0  0
    7.6139    3.6744    0.0000 C   0  0  1  0  0  0  0  0  0  0  0  0
    7.2177    4.5926    0.0000 C   0  0  2  0  0  0  0  0  0  0  0  0
    6.8630    3.0139    0.0000 C   0  0  2  0  0  0  0  0  0  0  0  0
    6.0029    3.5238    0.0000 C   0  0  2  0  0  0  0  0  0  0  0  0
    6.2221    4.4995    0.0000 C   0  0  2  0  0  0  0  0  0  0  0  0
    8.0100    2.7562    0.0000 C   0  0  0  0  0  0  0  0  0  0  0  0
    6.8671    1.9722    0.0000 C   0  0  1  0  0  0  0  0  0  0  0  0
    5.0871    3.0276    0.0000 C   0  0  0  0  0  0  0  0  0  0  0  0
    5.0670    1.9861    0.0000 C   0  0  0  0  0  0  0  0  0  0  0  0
    7.7331    0.4722    0.0000 C   0  0  2  0  0  0  0  0  0  0  0  0
    8.5991   -0.0278    0.0000 C   0  0  1  0  0  0  0  0  0  0  0  0
    8.5991   -1.0278    0.0000 C   0  0  2  0  0  0  0  0  0  0  0  0
    6.8671   -1.0278    0.0000 C   0  0  1  0  0  0  0  0  0  0  0  0
    7.7331   -1.5278    0.0000 C   0  0  1  0  0  0  0  0  0  0  0  0
    6.0010   -1.5278    0.0000 C   0  0  0  0  0  0  0  0  0  0  0  0
    5.1350   -3.0278    0.0000 C   0  0  1  0  0  0  0  0  0  0  0  0
    5.1350   -4.0278    0.0000 C   0  0  1  0  0  0  0  0  0  0  0  0
    4.2690   -4.5278    0.0000 C   0  0  2  0  0  0  0  0  0  0  0  0
    3.4030   -4.0278    0.0000 C   0  0  2  0  0  0  0  0  0  0  0  0
    3.4030   -3.0278    0.0000 C   0  0  1  0  0  0  0  0  0  0  0  0
    2.5369   -2.5278    0.0000 C   0  0  0  0  0  0  0  0  0  0  0  0
    7.2274    5.4425    0.0000 H   0  0  0  0  0  0  0  0  0  0  0  0
    7.6382    2.6652    0.0000 H   0  0  0  0  0  0  0  0  0  0  0  0
    5.3250    4.0366    0.0000 H   0  0  0  0  0  0  0  0  0  0  0  0
    5.6214    4.3460    0.0000 H   0  0  0  0  0  0  0  0  0  0  0  0
    7.4068    2.6132    0.0000 H   0  0  0  0  0  0  0  0  0  0  0  0
    8.0461    2.1372    0.0000 H   0  0  0  0  0  0  0  0  0  0  0  0
    7.4034    2.2833    0.0000 H   0  0  0  0  0  0  0  0  0  0  0  0
    4.5574    3.3499    0.0000 H   0  0  0  0  0  0  0  0  0  0  0  0
    5.7600    5.8378    0.0000 H   0  0  0  0  0  0  0  0  0  0  0  0
    4.5253    1.6844    0.0000 H   0  0  0  0  0  0  0  0  0  0  0  0
    9.3735    3.1375    0.0000 H   0  0  0  0  0  0  0  0  0  0  0  0
    7.1962    0.7822    0.0000 H   0  0  0  0  0  0  0  0  0  0  0  0
    8.5991    0.5922    0.0000 H   0  0  0  0  0  0  0  0  0  0  0  0
    9.1360   -0.7178    0.0000 H   0  0  0  0  0  0  0  0  0  0  0  0
    6.3301   -0.7178    0.0000 H   0  0  0  0  0  0  0  0  0  0  0  0
    8.2700   -1.8378    0.0000 H   0  0  0  0  0  0  0  0  0  0  0  0
    5.7890   -0.9451    0.0000 H   0  0  0  0  0  0  0  0  0  0  0  0
    5.3905   -1.6354    0.0000 H   0  0  0  0  0  0  0  0  0  0  0  0
   10.0021    0.1622    0.0000 H   0  0  0  0  0  0  0  0  0  0  0  0
    5.1350   -2.4078    0.0000 H   0  0  0  0  0  0  0  0  0  0  0  0
   10.0021   -1.2178    0.0000 H   0  0  0  0  0  0  0  0  0  0  0  0
    5.1350   -4.6478    0.0000 H   0  0  0  0  0  0  0  0  0  0  0  0
    8.2700   -2.8378    0.0000 H   0  0  0  0  0  0  0  0  0  0  0  0
    3.7320   -4.8378    0.0000 H   0  0  0  0  0  0  0  0  0  0  0  0
    3.4030   -4.6478    0.0000 H   0  0  0  0  0  0  0  0  0  0  0  0
    3.4030   -2.4078    0.0000 H   0  0  0  0  0  0  0  0  0  0  0  0
    1.9264   -2.4201    0.0000 H   0  0  0  0  0  0  0  0  0  0  0  0
    2.3249   -3.1104    0.0000 H   0  0  0  0  0  0  0  0  0  0  0  0
    6.5380   -4.2178    0.0000 H   0  0  0  0  0  0  0  0  0  0  0  0
    3.7320   -5.8378    0.0000 H   0  0  0  0  0  0  0  0  0  0  0  0
    2.0000   -4.2178    0.0000 H   0  0  0  0  0  0  0  0  0  0  0  0
    2.0000   -1.2178    0.0000 H   0  0  0  0  0  0  0  0  0  0  0  0
  1 16  1  0  0  0  0
  1 17  1  0  0  0  0
 20  2  1  6  0  0  0
  2 45  1  0  0  0  0
  3 22  1  0  0  0  0
  3 24  1  0  0  0  0
 22  4  1  6  0  0  0
 25  4  1  1  0  0  0
  5 21  1  0  0  0  0
  5 47  1  0  0  0  0
  6 25  1  0  0  0  0
  6 28  1  0  0  0  0
 26  7  1  6  0  0  0
  7 55  1  0  0  0  0
 27  8  1  1  0  0  0
  8 57  1  0  0  0  0
 29  9  1  6  0  0  0
  9 59  1  0  0  0  0
 10 30  1  0  0  0  0
 31 10  1  6  0  0  0
 11 31  1  0  0  0  0
 11 35  1  0  0  0  0
 32 12  1  6  0  0  0
 12 65  1  0  0  0  0
 33 13  1  1  0  0  0
 13 66  1  0  0  0  0
 34 14  1  1  0  0  0
 14 67  1  0  0  0  0
 15 36  1  0  0  0  0
 15 68  1  0  0  0  0
 16 17  1  0  0  0  0
 16 18  1  0  0  0  0
 16 21  1  1  0  0  0
 17 20  1  0  0  0  0
 17 37  1  1  0  0  0
 18 19  1  0  0  0  0
 18 22  1  0  0  0  0
 18 38  1  6  0  0  0
 19 20  1  0  0  0  0
 19 23  1  0  0  0  0
 19 39  1  6  0  0  0
 20 40  1  0  0  0  0
 21 41  1  0  0  0  0
 21 42  1  0  0  0  0
 22 43  1  0  0  0  0
 23 24  2  0  0  0  0
 23 44  1  0  0  0  0
 24 46  1  0  0  0  0
 25 26  1  0  0  0  0
 25 48  1  0  0  0  0
 26 27  1  0  0  0  0
 26 49  1  0  0  0  0
 27 29  1  0  0  0  0
 27 50  1  0  0  0  0
 28 29  1  0  0  0  0
 28 30  1  1  0  0  0
 28 51  1  0  0  0  0
 29 52  1  0  0  0  0
 30 53  1  0  0  0  0
 30 54  1  0  0  0  0
 31 32  1  0  0  0  0
 31 56  1  0  0  0  0
 32 33  1  0  0  0  0
 32 58  1  0  0  0  0
 33 34  1  0  0  0  0
 33 60  1  0  0  0  0
 34 35  1  0  0  0  0
 34 61  1  0  0  0  0
 35 36  1  1  0  0  0
 35 62  1  0  0  0  0
 36 63  1  0  0  0  0
 36 64  1  0  0  0  0
M  END
> <PUBCHEM_COMPOUND_CID>
6325881

> <PUBCHEM_COMPOUND_CANONICALIZED>
1

> <PUBCHEM_CACTVS_COMPLEXITY>
814

> <PUBCHEM_CACTVS_HBOND_ACCEPTOR>
15

> <PUBCHEM_CACTVS_HBOND_DONOR>
9

> <PUBCHEM_CACTVS_ROTATABLE_BOND>
7

> <PUBCHEM_CACTVS_SUBSKEYS>
AAADcfB4PAAAAAAAAAAAAAAAEgAAAYAAAAAkSJEAAAAAAEAAAAAAGgAACAAADVSwgAMACAAABgCAACBCAAAACAAgIAAIAAAAAAgREAIAAQAiQAAFwAAHAAHA4DwOgAAAAAAAAAAAAAAAAAAAAYQADCAAAA==

> <PUBCHEM_IUPAC_OPENEYE_NAME>
(2R,3R,4S,5R,6S)-2-(hydroxymethyl)-6-[[(2R,3S,4S,5R,6S)-3,4,5-trihydroxy-6-[[(1S,2S,4S,5S,6R,10S)-5-hydroxy-2-(hydroxymethyl)-3,9-dioxatricyclo[4.4.0.02,4]dec-7-en-10-yl]oxy]tetrahydropyran-2-yl]methoxy]tetrahydropyran-3,4,5-triol

> <PUBCHEM_IUPAC_CAS_NAME>
(2R,3R,4S,5R,6S)-2-(hydroxymethyl)-6-[[(2R,3S,4S,5R,6S)-3,4,5-trihydroxy-6-[[(1S,2S,4S,5S,6R,10S)-5-hydroxy-2-(hydroxymethyl)-3,9-dioxatricyclo[4.4.0.02,4]dec-7-en-10-yl]oxy]-2-oxanyl]methoxy]oxane-3,4,5-triol

> <PUBCHEM_IUPAC_NAME_MARKUP>
(2<I>R</I>,3<I>R</I>,4<I>S</I>,5<I>R</I>,6<I>S</I>)-2-(hydroxymethyl)-6-[[(2<I>R</I>,3<I>S</I>,4<I>S</I>,5<I>R</I>,6<I>S</I>)-3,4,5-trihydroxy-6-[[(1<I>S</I>,2<I>S</I>,4<I>S</I>,5<I>S</I>,6<I>R</I>,10<I>S</I>)-5-hydroxy-2-(hydroxymethyl)-3,9-dioxatricyclo[4.4.0.0<SUP>2,4</SUP>]dec-7-en-10-yl]oxy]oxan-2-yl]methoxy]oxane-3,4,5-triol

> <PUBCHEM_IUPAC_NAME>
(2R,3R,4S,5R,6S)-2-(hydroxymethyl)-6-[[(2R,3S,4S,5R,6S)-3,4,5-trihydroxy-6-[[(1S,2S,4S,5S,6R,10S)-5-hydroxy-2-(hydroxymethyl)-3,9-dioxatricyclo[4.4.0.02,4]dec-7-en-10-yl]oxy]oxan-2-yl]methoxy]oxane-3,4,5-triol

> <PUBCHEM_IUPAC_SYSTEMATIC_NAME>
(2R,3R,4S,5R,6S)-2-(hydroxymethyl)-6-[[(2R,3S,4S,5R,6S)-6-[[(1S,2S,4S,5S,6R,10S)-2-(hydroxymethyl)-5-oxidanyl-3,9-dioxatricyclo[4.4.0.02,4]dec-7-en-10-yl]oxy]-3,4,5-tris(oxidanyl)oxan-2-yl]methoxy]oxane-3,4,5-triol

> <PUBCHEM_IUPAC_TRADITIONAL_NAME>
(2R,3R,4S,5R,6S)-2-methylol-6-[[(2R,3S,4S,5R,6S)-3,4,5-trihydroxy-6-[[(1S,2S,4S,5S,6R,10S)-5-hydroxy-2-methylol-3,9-dioxatricyclo[4.4.0.02,4]dec-7-en-10-yl]oxy]tetrahydropyran-2-yl]methoxy]tetrahydropyran-3,4,5-triol

> <PUBCHEM_IUPAC_INCHI>
InChI=1S/C21H32O15/c22-3-7-11(25)13(27)15(29)19(33-7)32-4-8-12(26)14(28)16(30)20(34-8)35-18-9-6(1-2-31-18)10(24)17-21(9,5-23)36-17/h1-2,6-20,22-30H,3-5H2/t6-,7-,8-,9-,10+,11+,12-,13+,14+,15-,16-,17+,18+,19+,20+,21-/m1/s1

> <PUBCHEM_IUPAC_INCHIKEY>
DTNSOISBYQKHCS-XTOBSYSVSA-N

> <PUBCHEM_XLOGP3_AA>
-5.4

> <PUBCHEM_EXACT_MASS>
524.17412031

> <PUBCHEM_MOLECULAR_FORMULA>
C21H32O15

> <PUBCHEM_MOLECULAR_WEIGHT>
524.5

> <PUBCHEM_OPENEYE_CAN_SMILES>
C1=COC(C2C1C(C3C2(O3)CO)O)OC4C(C(C(C(O4)COC5C(C(C(C(O5)CO)O)O)O)O)O)O

> <PUBCHEM_OPENEYE_ISO_SMILES>
C1=CO[C@H]([C@H]2[C@@H]1[C@@H]([C@H]3[C@@]2(O3)CO)O)O[C@H]4[C@@H]([C@H]([C@@H]([C@H](O4)CO[C@@H]5[C@@H]([C@H]([C@H]([C@H](O5)CO)O)O)O)O)O)O

> <PUBCHEM_CACTVS_TPSA>
241

> <PUBCHEM_MONOISOTOPIC_WEIGHT>
524.17412031

> <PUBCHEM_TOTAL_CHARGE>
0

> <PUBCHEM_HEAVY_ATOM_COUNT>
36

> <PUBCHEM_ATOM_DEF_STEREO_COUNT>
16

> <PUBCHEM_ATOM_UDEF_STEREO_COUNT>
0

> <PUBCHEM_BOND_DEF_STEREO_COUNT>
0

> <PUBCHEM_BOND_UDEF_STEREO_COUNT>
0

> <PUBCHEM_ISOTOPIC_ATOM_COUNT>
0

> <PUBCHEM_COMPONENT_COUNT>
1

> <PUBCHEM_CACTVS_TAUTO_COUNT>
-1

> <PUBCHEM_COORDINATE_TYPE>
1
5
255

> <PUBCHEM_BONDANNOTATIONS>
31  10  6
32  12  6
33  13  5
34  14  5
16  21  5
17  37  5
18  38  6
19  39  6
20  2  6
28  30  5
35  36  5
22  4  6
25  4  5
26  7  6
27  8  5
29  9  6

$$$$
