 
  -OEChem-10192104002D

 27 27  0     1  0  0  0  0  0999 V2000
    5.9019   -0.9739    0.0000 O   0  0  0  0  0  0  0  0  0  0  0  0
    5.9589    2.1139    0.0000 O   0  0  0  0  0  0  0  0  0  0  0  0
    2.5896   -1.3340    0.0000 O   0  0  0  0  0  0  0  0  0  0  0  0
    6.1807   -2.7339    0.0000 O   0  0  0  0  0  0  0  0  0  0  0  0
    4.2268    2.1139    0.0000 O   0  0  0  0  0  0  0  0  0  0  0  0
    3.1249    0.3133    0.0000 O   0  0  0  0  0  0  0  0  0  0  0  0
    5.0929   -0.3861    0.0000 C   0  0  3  0  0  0  0  0  0  0  0  0
    5.0929    0.6139    0.0000 C   0  0  0  0  0  0  0  0  0  0  0  0
    4.2839   -0.9739    0.0000 C   0  0  3  0  0  0  0  0  0  0  0  0
    4.5929   -1.9249    0.0000 C   0  0  0  0  0  0  0  0  0  0  0  0
    6.0929    0.6139    0.0000 C   0  0  0  0  0  0  0  0  0  0  0  0
    4.0929    0.6139    0.0000 C   0  0  0  0  0  0  0  0  0  0  0  0
    5.5929   -1.9249    0.0000 C   0  0  0  0  0  0  0  0  0  0  0  0
    5.0929    1.6139    0.0000 C   0  0  0  0  0  0  0  0  0  0  0  0
    3.3328   -0.6648    0.0000 C   0  0  0  0  0  0  0  0  0  0  0  0
    5.6453   -0.1046    0.0000 H   0  0  0  0  0  0  0  0  0  0  0  0
    3.8454   -1.4123    0.0000 H   0  0  0  0  0  0  0  0  0  0  0  0
    3.9864   -2.0538    0.0000 H   0  0  0  0  0  0  0  0  0  0  0  0
    4.6577   -2.5415    0.0000 H   0  0  0  0  0  0  0  0  0  0  0  0
    6.0929   -0.0061    0.0000 H   0  0  0  0  0  0  0  0  0  0  0  0
    6.7129    0.6139    0.0000 H   0  0  0  0  0  0  0  0  0  0  0  0
    6.0929    1.2339    0.0000 H   0  0  0  0  0  0  0  0  0  0  0  0
    4.0929    1.2339    0.0000 H   0  0  0  0  0  0  0  0  0  0  0  0
    3.4729    0.6139    0.0000 H   0  0  0  0  0  0  0  0  0  0  0  0
    4.0929   -0.0061    0.0000 H   0  0  0  0  0  0  0  0  0  0  0  0
    5.9589    2.7339    0.0000 H   0  0  0  0  0  0  0  0  0  0  0  0
    2.0000   -1.1424    0.0000 H   0  0  0  0  0  0  0  0  0  0  0  0
  1  7  1  0  0  0  0
  1 13  1  0  0  0  0
  2 14  1  0  0  0  0
  2 26  1  0  0  0  0
  3 15  1  0  0  0  0
  3 27  1  0  0  0  0
  4 13  2  0  0  0  0
  5 14  2  0  0  0  0
  6 15  2  0  0  0  0
  7  8  1  0  0  0  0
  7  9  1  0  0  0  0
  7 16  1  0  0  0  0
  8 11  1  0  0  0  0
  8 12  1  0  0  0  0
  8 14  1  0  0  0  0
  9 10  1  0  0  0  0
  9 15  1  0  0  0  0
  9 17  1  0  0  0  0
 10 13  1  0  0  0  0
 10 18  1  0  0  0  0
 10 19  1  0  0  0  0
 11 20  1  0  0  0  0
 11 21  1  0  0  0  0
 11 22  1  0  0  0  0
 12 23  1  0  0  0  0
 12 24  1  0  0  0  0
 12 25  1  0  0  0  0
M  END
> <PUBCHEM_COMPOUND_CID>
129988565

> <PUBCHEM_COMPOUND_CANONICALIZED>
1

> <PUBCHEM_CACTVS_COMPLEXITY>
319

> <PUBCHEM_CACTVS_HBOND_ACCEPTOR>
6

> <PUBCHEM_CACTVS_HBOND_DONOR>
2

> <PUBCHEM_CACTVS_ROTATABLE_BOND>
3

> <PUBCHEM_CACTVS_SUBSKEYS>
AAADccBwOAAAAAAAAAAAAAAAAAAAASAAAAAAAAAAAAAAAAAAAAAAGgAACAAADxSggAICCAAABgAIAACQCAAAAAAAAAAAAAEAAAAAABYAAAACQAAFIAAAAAHLbhAPAAAAAAAAAAAAAAAAAAAAAAAAAAAAAA==

> <PUBCHEM_IUPAC_OPENEYE_NAME>
2-(1-carboxy-1-methyl-ethyl)-5-oxo-tetrahydrofuran-3-carboxylic acid

> <PUBCHEM_IUPAC_CAS_NAME>
2-(2-carboxypropan-2-yl)-5-oxo-3-oxolanecarboxylic acid

> <PUBCHEM_IUPAC_NAME_MARKUP>
2-(2-carboxypropan-2-yl)-5-oxooxolane-3-carboxylic acid

> <PUBCHEM_IUPAC_NAME>
2-(2-carboxypropan-2-yl)-5-oxooxolane-3-carboxylic acid

> <PUBCHEM_IUPAC_SYSTEMATIC_NAME>
2-(2-methyl-1-oxidanyl-1-oxidanylidene-propan-2-yl)-5-oxidanylidene-oxolane-3-carboxylic acid

> <PUBCHEM_IUPAC_TRADITIONAL_NAME>
2-(1-carboxy-1-methyl-ethyl)-5-keto-tetrahydrofuran-3-carboxylic acid

> <PUBCHEM_IUPAC_INCHI>
InChI=1S/C9H12O6/c1-9(2,8(13)14)6-4(7(11)12)3-5(10)15-6/h4,6H,3H2,1-2H3,(H,11,12)(H,13,14)

> <PUBCHEM_IUPAC_INCHIKEY>
DKQBMTQHFHAWRX-UHFFFAOYSA-N

> <PUBCHEM_XLOGP3_AA>
-0.1

> <PUBCHEM_EXACT_MASS>
216.06338810

> <PUBCHEM_MOLECULAR_FORMULA>
C9H12O6

> <PUBCHEM_MOLECULAR_WEIGHT>
216.19

> <PUBCHEM_OPENEYE_CAN_SMILES>
CC(C)(C1C(CC(=O)O1)C(=O)O)C(=O)O

> <PUBCHEM_OPENEYE_ISO_SMILES>
CC(C)(C1C(CC(=O)O1)C(=O)O)C(=O)O

> <PUBCHEM_CACTVS_TPSA>
101

> <PUBCHEM_MONOISOTOPIC_WEIGHT>
216.06338810

> <PUBCHEM_TOTAL_CHARGE>
0

> <PUBCHEM_HEAVY_ATOM_COUNT>
15

> <PUBCHEM_ATOM_DEF_STEREO_COUNT>
0

> <PUBCHEM_ATOM_UDEF_STEREO_COUNT>
2

> <PUBCHEM_BOND_DEF_STEREO_COUNT>
0

> <PUBCHEM_BOND_UDEF_STEREO_COUNT>
0

> <PUBCHEM_ISOTOPIC_ATOM_COUNT>
0

> <PUBCHEM_COMPONENT_COUNT>
1

> <PUBCHEM_CACTVS_TAUTO_COUNT>
-1

> <PUBCHEM_COORDINATE_TYPE>
1
5
255

> <PUBCHEM_BONDANNOTATIONS>
7  8  3
9  15  3

$$$$
