 
  -OEChem-10192104312D

 48 49  0     0  0  0  0  0  0999 V2000
    6.3301    0.2500    0.0000 O   0  0  0  0  0  0  0  0  0  0  0  0
    7.1962    4.7500    0.0000 O   0  0  0  0  0  0  0  0  0  0  0  0
    8.9282    3.7500    0.0000 O   0  0  0  0  0  0  0  0  0  0  0  0
    5.4641    3.7500    0.0000 O   0  0  0  0  0  0  0  0  0  0  0  0
    2.0000   -4.2500    0.0000 O   0  0  0  0  0  0  0  0  0  0  0  0
    8.0622    0.2500    0.0000 O   0  0  0  0  0  0  0  0  0  0  0  0
    4.5981   -0.7500    0.0000 O   0  0  0  0  0  0  0  0  0  0  0  0
    5.4641   -2.2500    0.0000 N   0  0  0  0  0  0  0  0  0  0  0  0
    7.1962    1.7500    0.0000 C   0  0  0  0  0  0  0  0  0  0  0  0
    7.1962    3.7500    0.0000 C   0  0  0  0  0  0  0  0  0  0  0  0
    8.0622    3.2500    0.0000 C   0  0  0  0  0  0  0  0  0  0  0  0
    6.3301    3.2500    0.0000 C   0  0  0  0  0  0  0  0  0  0  0  0
    8.0622    2.2500    0.0000 C   0  0  0  0  0  0  0  0  0  0  0  0
    6.3301    2.2500    0.0000 C   0  0  0  0  0  0  0  0  0  0  0  0
    7.1962    0.7500    0.0000 C   0  0  0  0  0  0  0  0  0  0  0  0
    4.5981   -2.7500    0.0000 C   0  0  0  0  0  0  0  0  0  0  0  0
    6.3301   -0.7500    0.0000 C   0  0  0  0  0  0  0  0  0  0  0  0
    5.4641   -1.2500    0.0000 C   0  0  0  0  0  0  0  0  0  0  0  0
    4.5981   -3.7500    0.0000 C   0  0  0  0  0  0  0  0  0  0  0  0
    3.7320   -2.2500    0.0000 C   0  0  0  0  0  0  0  0  0  0  0  0
    2.8660   -3.7500    0.0000 C   0  0  0  0  0  0  0  0  0  0  0  0
    3.7320   -4.2500    0.0000 C   0  0  0  0  0  0  0  0  0  0  0  0
    2.8660   -2.7500    0.0000 C   0  0  0  0  0  0  0  0  0  0  0  0
    8.0622    5.2500    0.0000 C   0  0  0  0  0  0  0  0  0  0  0  0
    9.7942    3.2500    0.0000 C   0  0  0  0  0  0  0  0  0  0  0  0
    4.5981    3.2500    0.0000 C   0  0  0  0  0  0  0  0  0  0  0  0
    2.0000   -5.2500    0.0000 C   0  0  0  0  0  0  0  0  0  0  0  0
    8.5991    1.9400    0.0000 H   0  0  0  0  0  0  0  0  0  0  0  0
    5.7932    1.9400    0.0000 H   0  0  0  0  0  0  0  0  0  0  0  0
    6.5422   -1.3326    0.0000 H   0  0  0  0  0  0  0  0  0  0  0  0
    6.9407   -0.6423    0.0000 H   0  0  0  0  0  0  0  0  0  0  0  0
    6.0010   -2.5600    0.0000 H   0  0  0  0  0  0  0  0  0  0  0  0
    5.1350   -4.0600    0.0000 H   0  0  0  0  0  0  0  0  0  0  0  0
    3.7320   -1.6300    0.0000 H   0  0  0  0  0  0  0  0  0  0  0  0
    3.7320   -4.8700    0.0000 H   0  0  0  0  0  0  0  0  0  0  0  0
    2.3291   -2.4400    0.0000 H   0  0  0  0  0  0  0  0  0  0  0  0
    8.3722    4.7131    0.0000 H   0  0  0  0  0  0  0  0  0  0  0  0
    8.5991    5.5600    0.0000 H   0  0  0  0  0  0  0  0  0  0  0  0
    7.7522    5.7869    0.0000 H   0  0  0  0  0  0  0  0  0  0  0  0
    9.4842    2.7131    0.0000 H   0  0  0  0  0  0  0  0  0  0  0  0
   10.3312    2.9400    0.0000 H   0  0  0  0  0  0  0  0  0  0  0  0
   10.1042    3.7869    0.0000 H   0  0  0  0  0  0  0  0  0  0  0  0
    4.2881    3.7869    0.0000 H   0  0  0  0  0  0  0  0  0  0  0  0
    4.0611    2.9400    0.0000 H   0  0  0  0  0  0  0  0  0  0  0  0
    4.9081    2.7131    0.0000 H   0  0  0  0  0  0  0  0  0  0  0  0
    1.3800   -5.2500    0.0000 H   0  0  0  0  0  0  0  0  0  0  0  0
    2.0000   -5.8700    0.0000 H   0  0  0  0  0  0  0  0  0  0  0  0
    2.6200   -5.2500    0.0000 H   0  0  0  0  0  0  0  0  0  0  0  0
  1 15  1  0  0  0  0
  1 17  1  0  0  0  0
  2 10  1  0  0  0  0
  2 24  1  0  0  0  0
  3 11  1  0  0  0  0
  3 25  1  0  0  0  0
  4 12  1  0  0  0  0
  4 26  1  0  0  0  0
  5 21  1  0  0  0  0
  5 27  1  0  0  0  0
  6 15  2  0  0  0  0
  7 18  2  0  0  0  0
  8 16  1  0  0  0  0
  8 18  1  0  0  0  0
  8 32  1  0  0  0  0
  9 13  2  0  0  0  0
  9 14  1  0  0  0  0
  9 15  1  0  0  0  0
 10 11  2  0  0  0  0
 10 12  1  0  0  0  0
 11 13  1  0  0  0  0
 12 14  2  0  0  0  0
 13 28  1  0  0  0  0
 14 29  1  0  0  0  0
 16 19  2  0  0  0  0
 16 20  1  0  0  0  0
 17 18  1  0  0  0  0
 17 30  1  0  0  0  0
 17 31  1  0  0  0  0
 19 22  1  0  0  0  0
 19 33  1  0  0  0  0
 20 23  2  0  0  0  0
 20 34  1  0  0  0  0
 21 22  2  0  0  0  0
 21 23  1  0  0  0  0
 22 35  1  0  0  0  0
 23 36  1  0  0  0  0
 24 37  1  0  0  0  0
 24 38  1  0  0  0  0
 24 39  1  0  0  0  0
 25 40  1  0  0  0  0
 25 41  1  0  0  0  0
 25 42  1  0  0  0  0
 26 43  1  0  0  0  0
 26 44  1  0  0  0  0
 26 45  1  0  0  0  0
 27 46  1  0  0  0  0
 27 47  1  0  0  0  0
 27 48  1  0  0  0  0
M  END
> <PUBCHEM_COMPOUND_CID>
1669833

> <PUBCHEM_COMPOUND_CANONICALIZED>
1

> <PUBCHEM_CACTVS_COMPLEXITY>
465

> <PUBCHEM_CACTVS_HBOND_ACCEPTOR>
7

> <PUBCHEM_CACTVS_HBOND_DONOR>
1

> <PUBCHEM_CACTVS_ROTATABLE_BOND>
9

> <PUBCHEM_CACTVS_SUBSKEYS>
AAADceB6OAAAAAAAAAAAAAAAAAAAAAAAAAAwYAAAAAAAAAABQAAAHgAQAAAADAyhmAIyzoLABACIAiXSWAKCCAAlIgAIiAFG7MgPJzLEtZ+HMSpl1BXa6Yf67DzOIEABCAAAQABAgAIQAACAAAAAAAAAAA==

> <PUBCHEM_IUPAC_OPENEYE_NAME>
[2-(4-methoxyanilino)-2-oxo-ethyl] 3,4,5-trimethoxybenzoate

> <PUBCHEM_IUPAC_CAS_NAME>
3,4,5-trimethoxybenzoic acid [2-(4-methoxyanilino)-2-oxoethyl] ester

> <PUBCHEM_IUPAC_NAME_MARKUP>
[2-(4-methoxyanilino)-2-oxoethyl] 3,4,5-trimethoxybenzoate

> <PUBCHEM_IUPAC_NAME>
[2-(4-methoxyanilino)-2-oxoethyl] 3,4,5-trimethoxybenzoate

> <PUBCHEM_IUPAC_SYSTEMATIC_NAME>
[2-[(4-methoxyphenyl)amino]-2-oxidanylidene-ethyl] 3,4,5-trimethoxybenzoate

> <PUBCHEM_IUPAC_TRADITIONAL_NAME>
3,4,5-trimethoxybenzoic acid [2-keto-2-(p-anisidino)ethyl] ester

> <PUBCHEM_IUPAC_INCHI>
InChI=1S/C19H21NO7/c1-23-14-7-5-13(6-8-14)20-17(21)11-27-19(22)12-9-15(24-2)18(26-4)16(10-12)25-3/h5-10H,11H2,1-4H3,(H,20,21)

> <PUBCHEM_IUPAC_INCHIKEY>
XSGYIONXXTUCPE-UHFFFAOYSA-N

> <PUBCHEM_XLOGP3_AA>
2.6

> <PUBCHEM_EXACT_MASS>
375.13180201

> <PUBCHEM_MOLECULAR_FORMULA>
C19H21NO7

> <PUBCHEM_MOLECULAR_WEIGHT>
375.4

> <PUBCHEM_OPENEYE_CAN_SMILES>
COC1=CC=C(C=C1)NC(=O)COC(=O)C2=CC(=C(C(=C2)OC)OC)OC

> <PUBCHEM_OPENEYE_ISO_SMILES>
COC1=CC=C(C=C1)NC(=O)COC(=O)C2=CC(=C(C(=C2)OC)OC)OC

> <PUBCHEM_CACTVS_TPSA>
92.3

> <PUBCHEM_MONOISOTOPIC_WEIGHT>
375.13180201

> <PUBCHEM_TOTAL_CHARGE>
0

> <PUBCHEM_HEAVY_ATOM_COUNT>
27

> <PUBCHEM_ATOM_DEF_STEREO_COUNT>
0

> <PUBCHEM_ATOM_UDEF_STEREO_COUNT>
0

> <PUBCHEM_BOND_DEF_STEREO_COUNT>
0

> <PUBCHEM_BOND_UDEF_STEREO_COUNT>
0

> <PUBCHEM_ISOTOPIC_ATOM_COUNT>
0

> <PUBCHEM_COMPONENT_COUNT>
1

> <PUBCHEM_CACTVS_TAUTO_COUNT>
-1

> <PUBCHEM_COORDINATE_TYPE>
1
5
255

> <PUBCHEM_BONDANNOTATIONS>
10  11  8
10  12  8
11  13  8
12  14  8
16  19  8
16  20  8
19  22  8
20  23  8
21  22  8
21  23  8
9  13  8
9  14  8

$$$$
