 
  -OEChem-10192103332D

 50 53  0     1  0  0  0  0  0999 V2000
    8.5728    2.9729    0.0000 S   0  0  0  0  0  0  0  0  0  0  0  0
    8.5711    1.9728    0.0000 P   0  0  3  0  0  0  0  0  0  0  0  0
    6.0365    0.2084    0.0000 O   0  0  0  0  0  0  0  0  0  0  0  0
    3.4985    0.7128    0.0000 O   0  0  0  0  0  0  0  0  0  0  0  0
    4.7803    2.4706    0.0000 O   0  0  0  0  0  0  0  0  0  0  0  0
    7.7611    1.3865    0.0000 O   0  0  0  0  0  0  0  0  0  0  0  0
    9.5216    1.6622    0.0000 O   0  0  0  0  0  0  0  0  0  0  0  0
    3.5015    2.4448    0.0000 O   0  0  0  0  0  0  0  0  0  0  0  0
    6.4285    3.0030    0.0000 O   0  0  0  0  0  0  0  0  0  0  0  0
    4.7742   -1.0495    0.0000 N   0  0  0  0  0  0  0  0  0  0  0  0
    4.7742   -2.6590    0.0000 N   0  0  0  0  0  0  0  0  0  0  0  0
    2.9620   -0.8542    0.0000 N   0  0  0  0  0  0  0  0  0  0  0  0
    2.0960   -2.3542    0.0000 N   0  0  0  0  0  0  0  0  0  0  0  0
    2.9620   -3.8542    0.0000 N   0  0  0  0  0  0  0  0  0  0  0  0
    4.4985    0.7111    0.0000 C   0  0  2  0  0  0  0  0  0  0  0  0
    5.0877    1.5191    0.0000 C   0  0  1  0  0  0  0  0  0  0  0  0
    5.0849   -0.0990    0.0000 C   0  0  1  0  0  0  0  0  0  0  0  0
    6.0382    1.2084    0.0000 C   0  0  1  0  0  0  0  0  0  0  0  0
    6.8482    1.7948    0.0000 C   0  0  0  0  0  0  0  0  0  0  0  0
    3.8280   -1.3542    0.0000 C   0  0  0  0  0  0  0  0  0  0  0  0
    5.3578   -1.8542    0.0000 C   0  0  0  0  0  0  0  0  0  0  0  0
    3.8280   -2.3542    0.0000 C   0  0  0  0  0  0  0  0  0  0  0  0
    3.0000    1.5797    0.0000 C   0  0  0  0  0  0  0  0  0  0  0  0
    5.4507    3.2126    0.0000 C   0  0  0  0  0  0  0  0  0  0  0  0
    2.9620   -2.8542    0.0000 C   0  0  0  0  0  0  0  0  0  0  0  0
    2.0000    1.5814    0.0000 C   0  0  0  0  0  0  0  0  0  0  0  0
    5.1434    4.1642    0.0000 C   0  0  0  0  0  0  0  0  0  0  0  0
    2.0960   -1.3542    0.0000 C   0  0  0  0  0  0  0  0  0  0  0  0
    9.5244    3.2802    0.0000 C   0  0  0  0  0  0  0  0  0  0  0  0
   10.1108    2.4702    0.0000 C   0  0  0  0  0  0  0  0  0  0  0  0
    4.2180    1.2640    0.0000 H   0  0  0  0  0  0  0  0  0  0  0  0
    4.4755    1.6171    0.0000 H   0  0  0  0  0  0  0  0  0  0  0  0
    4.4723   -0.1949    0.0000 H   0  0  0  0  0  0  0  0  0  0  0  0
    6.5901    0.9260    0.0000 H   0  0  0  0  0  0  0  0  0  0  0  0
    7.1958    2.3082    0.0000 H   0  0  0  0  0  0  0  0  0  0  0  0
    6.4030    2.2262    0.0000 H   0  0  0  0  0  0  0  0  0  0  0  0
    5.9778   -1.8542    0.0000 H   0  0  0  0  0  0  0  0  0  0  0  0
    2.0011    2.2014    0.0000 H   0  0  0  0  0  0  0  0  0  0  0  0
    1.3800    1.5825    0.0000 H   0  0  0  0  0  0  0  0  0  0  0  0
    1.9989    0.9614    0.0000 H   0  0  0  0  0  0  0  0  0  0  0  0
    5.7333    4.3548    0.0000 H   0  0  0  0  0  0  0  0  0  0  0  0
    4.9528    4.7542    0.0000 H   0  0  0  0  0  0  0  0  0  0  0  0
    4.5534    3.9736    0.0000 H   0  0  0  0  0  0  0  0  0  0  0  0
    1.5590   -1.0442    0.0000 H   0  0  0  0  0  0  0  0  0  0  0  0
   10.0619    3.5893    0.0000 H   0  0  0  0  0  0  0  0  0  0  0  0
    9.2732    3.8470    0.0000 H   0  0  0  0  0  0  0  0  0  0  0  0
   10.5708    2.0545    0.0000 H   0  0  0  0  0  0  0  0  0  0  0  0
   10.5723    2.8843    0.0000 H   0  0  0  0  0  0  0  0  0  0  0  0
    2.4250   -4.1642    0.0000 H   0  0  0  0  0  0  0  0  0  0  0  0
    3.4989   -4.1642    0.0000 H   0  0  0  0  0  0  0  0  0  0  0  0
  1  2  1  0  0  0  0
  1 29  1  0  0  0  0
  2  6  1  0  0  0  0
  2  7  1  0  0  0  0
  3 17  1  0  0  0  0
  3 18  1  0  0  0  0
 15  4  1  6  0  0  0
  4 23  1  0  0  0  0
 16  5  1  6  0  0  0
  5 24  1  0  0  0  0
  6 19  1  0  0  0  0
  7 30  1  0  0  0  0
  8 23  2  0  0  0  0
  9 24  2  0  0  0  0
 17 10  1  1  0  0  0
 10 20  1  0  0  0  0
 10 21  1  0  0  0  0
 11 21  2  0  0  0  0
 11 22  1  0  0  0  0
 12 20  2  0  0  0  0
 12 28  1  0  0  0  0
 13 25  1  0  0  0  0
 13 28  2  0  0  0  0
 14 25  1  0  0  0  0
 14 49  1  0  0  0  0
 14 50  1  0  0  0  0
 15 16  1  0  0  0  0
 15 17  1  0  0  0  0
 15 31  1  0  0  0  0
 16 18  1  0  0  0  0
 16 32  1  0  0  0  0
 17 33  1  0  0  0  0
 18 19  1  1  0  0  0
 18 34  1  0  0  0  0
 19 35  1  0  0  0  0
 19 36  1  0  0  0  0
 20 22  1  0  0  0  0
 21 37  1  0  0  0  0
 22 25  2  0  0  0  0
 23 26  1  0  0  0  0
 24 27  1  0  0  0  0
 26 38  1  0  0  0  0
 26 39  1  0  0  0  0
 26 40  1  0  0  0  0
 27 41  1  0  0  0  0
 27 42  1  0  0  0  0
 27 43  1  0  0  0  0
 28 44  1  0  0  0  0
 29 30  1  0  0  0  0
 29 45  1  0  0  0  0
 29 46  1  0  0  0  0
 30 47  1  0  0  0  0
 30 48  1  0  0  0  0
M  END
> <PUBCHEM_COMPOUND_CID>
11442475

> <PUBCHEM_COMPOUND_CANONICALIZED>
1

> <PUBCHEM_CACTVS_COMPLEXITY>
651

> <PUBCHEM_CACTVS_HBOND_ACCEPTOR>
12

> <PUBCHEM_CACTVS_HBOND_DONOR>
1

> <PUBCHEM_CACTVS_ROTATABLE_BOND>
8

> <PUBCHEM_CACTVS_SUBSKEYS>
AAADceB7uAJAAAAAAAAAAAAAAAAAAWJEgAAsAAAAAAAAAFgB+AAAHgQQACAACBzl1waH+L9MFRCoAQbxbACAgC0REKABUCAoVBCDSAJAyEAfBAgPAALSACDwMAIAAAAAAAAAAAAAAAAAAAAAAAAAAAAAAA==

> <PUBCHEM_IUPAC_OPENEYE_NAME>
[(2R,3R,4R,5R)-4-acetoxy-5-(6-aminopurin-9-yl)-2-(1,3,2-oxathiaphospholan-2-yloxymethyl)tetrahydrofuran-3-yl] acetate

> <PUBCHEM_IUPAC_CAS_NAME>
acetic acid [(2R,3R,4R,5R)-4-acetyloxy-5-(6-aminopurin-9-yl)-2-(1,3,2-oxathiaphospholan-2-yloxymethyl)-3-oxolanyl] ester

> <PUBCHEM_IUPAC_NAME_MARKUP>
[(2<I>R</I>,3<I>R</I>,4<I>R</I>,5<I>R</I>)-4-acetyloxy-5-(6-aminopurin-9-yl)-2-(1,3,2-oxathiaphospholan-2-yloxymethyl)oxolan-3-yl] acetate

> <PUBCHEM_IUPAC_NAME>
[(2R,3R,4R,5R)-4-acetyloxy-5-(6-aminopurin-9-yl)-2-(1,3,2-oxathiaphospholan-2-yloxymethyl)oxolan-3-yl] acetate

> <PUBCHEM_IUPAC_SYSTEMATIC_NAME>
[(2R,3R,4R,5R)-4-acetyloxy-5-(6-aminopurin-9-yl)-2-(1,3,2-oxathiaphospholan-2-yloxymethyl)oxolan-3-yl] ethanoate

> <PUBCHEM_IUPAC_TRADITIONAL_NAME>
acetic acid [(2R,3R,4R,5R)-4-acetoxy-5-adenin-9-yl-2-(1,3,2-oxathiaphospholan-2-yloxymethyl)tetrahydrofuran-3-yl] ester

> <PUBCHEM_IUPAC_INCHI>
InChI=1S/C16H20N5O7PS/c1-8(22)26-12-10(5-25-29-24-3-4-30-29)28-16(13(12)27-9(2)23)21-7-20-11-14(17)18-6-19-15(11)21/h6-7,10,12-13,16H,3-5H2,1-2H3,(H2,17,18,19)/t10-,12-,13-,16-,29?/m1/s1

> <PUBCHEM_IUPAC_INCHIKEY>
ZMGULDCRIPCVEV-LQCNHLKASA-N

> <PUBCHEM_XLOGP3>
-0.6

> <PUBCHEM_EXACT_MASS>
457.08210617

> <PUBCHEM_MOLECULAR_FORMULA>
C16H20N5O7PS

> <PUBCHEM_MOLECULAR_WEIGHT>
457.4

> <PUBCHEM_OPENEYE_CAN_SMILES>
CC(=O)OC1C(OC(C1OC(=O)C)N2C=NC3=C(N=CN=C32)N)COP4OCCS4

> <PUBCHEM_OPENEYE_ISO_SMILES>
CC(=O)O[C@@H]1[C@H](O[C@H]([C@@H]1OC(=O)C)N2C=NC3=C(N=CN=C32)N)COP4OCCS4

> <PUBCHEM_CACTVS_TPSA>
175

> <PUBCHEM_MONOISOTOPIC_WEIGHT>
457.08210617

> <PUBCHEM_TOTAL_CHARGE>
0

> <PUBCHEM_HEAVY_ATOM_COUNT>
30

> <PUBCHEM_ATOM_DEF_STEREO_COUNT>
4

> <PUBCHEM_ATOM_UDEF_STEREO_COUNT>
1

> <PUBCHEM_BOND_DEF_STEREO_COUNT>
0

> <PUBCHEM_BOND_UDEF_STEREO_COUNT>
0

> <PUBCHEM_ISOTOPIC_ATOM_COUNT>
0

> <PUBCHEM_COMPONENT_COUNT>
1

> <PUBCHEM_CACTVS_TAUTO_COUNT>
-1

> <PUBCHEM_COORDINATE_TYPE>
1
5
255

> <PUBCHEM_BONDANNOTATIONS>
17  10  5
10  20  8
10  21  8
11  21  8
11  22  8
12  20  8
12  28  8
13  25  8
13  28  8
18  19  5
2  6  3
20  22  8
22  25  8
15  4  6
16  5  6

$$$$
