 
  -OEChem-10192104052D

 35 35  0     1  0  0  0  0  0999 V2000
    4.3660    2.8665    0.0000 O   0  0  0  0  0  0  0  0  0  0  0  0
    8.8660   -1.4636    0.0000 O   0  0  0  0  0  0  0  0  0  0  0  0
    7.3660   -2.3296    0.0000 O   0  0  0  0  0  0  0  0  0  0  0  0
    8.8660    0.2685    0.0000 O   0  0  0  0  0  0  0  0  0  0  0  0
    5.8660   -1.4636    0.0000 O   0  0  0  0  0  0  0  0  0  0  0  0
    2.8660    2.0005    0.0000 C   0  0  0  0  0  0  0  0  0  0  0  0
    2.0000    1.5005    0.0000 C   0  0  0  0  0  0  0  0  0  0  0  0
    2.0000    2.5005    0.0000 C   0  0  0  0  0  0  0  0  0  0  0  0
    3.8660    2.0005    0.0000 C   0  0  0  0  0  0  0  0  0  0  0  0
    4.3660    1.1345    0.0000 C   0  0  3  0  0  0  0  0  0  0  0  0
    5.3660    1.1345    0.0000 C   0  0  0  0  0  0  0  0  0  0  0  0
    5.8660    0.2685    0.0000 C   0  0  0  0  0  0  0  0  0  0  0  0
    3.8660    0.2685    0.0000 C   0  0  0  0  0  0  0  0  0  0  0  0
    6.8660    0.2685    0.0000 C   0  0  0  0  0  0  0  0  0  0  0  0
    7.3660   -0.5976    0.0000 C   0  0  0  0  0  0  0  0  0  0  0  0
    8.3660   -0.5976    0.0000 C   0  0  0  0  0  0  0  0  0  0  0  0
    6.8660   -1.4636    0.0000 C   0  0  0  0  0  0  0  0  0  0  0  0
    3.0265    2.5994    0.0000 H   0  0  0  0  0  0  0  0  0  0  0  0
    1.3894    1.3929    0.0000 H   0  0  0  0  0  0  0  0  0  0  0  0
    2.2120    0.9179    0.0000 H   0  0  0  0  0  0  0  0  0  0  0  0
    2.2120    3.0831    0.0000 H   0  0  0  0  0  0  0  0  0  0  0  0
    1.3894    2.6082    0.0000 H   0  0  0  0  0  0  0  0  0  0  0  0
    3.7460    1.1345    0.0000 H   0  0  0  0  0  0  0  0  0  0  0  0
    5.9486    1.3466    0.0000 H   0  0  0  0  0  0  0  0  0  0  0  0
    5.2584    1.7451    0.0000 H   0  0  0  0  0  0  0  0  0  0  0  0
    5.2834    0.0564    0.0000 H   0  0  0  0  0  0  0  0  0  0  0  0
    5.9737   -0.3421    0.0000 H   0  0  0  0  0  0  0  0  0  0  0  0
    3.3291    0.5785    0.0000 H   0  0  0  0  0  0  0  0  0  0  0  0
    3.5560   -0.2685    0.0000 H   0  0  0  0  0  0  0  0  0  0  0  0
    4.4030   -0.0415    0.0000 H   0  0  0  0  0  0  0  0  0  0  0  0
    7.4486    0.4805    0.0000 H   0  0  0  0  0  0  0  0  0  0  0  0
    6.7584    0.8790    0.0000 H   0  0  0  0  0  0  0  0  0  0  0  0
    7.6760   -1.1345    0.0000 H   0  0  0  0  0  0  0  0  0  0  0  0
    9.4860   -1.4636    0.0000 H   0  0  0  0  0  0  0  0  0  0  0  0
    7.0560   -2.8665    0.0000 H   0  0  0  0  0  0  0  0  0  0  0  0
  1  9  2  0  0  0  0
  2 16  1  0  0  0  0
  2 34  1  0  0  0  0
  3 17  1  0  0  0  0
  3 35  1  0  0  0  0
  4 16  2  0  0  0  0
  5 17  2  0  0  0  0
  6  7  1  0  0  0  0
  6  8  1  0  0  0  0
  6  9  1  0  0  0  0
  6 18  1  0  0  0  0
  7  8  1  0  0  0  0
  7 19  1  0  0  0  0
  7 20  1  0  0  0  0
  8 21  1  0  0  0  0
  8 22  1  0  0  0  0
  9 10  1  0  0  0  0
 10 11  1  0  0  0  0
 10 13  1  0  0  0  0
 10 23  1  0  0  0  0
 11 12  1  0  0  0  0
 11 24  1  0  0  0  0
 11 25  1  0  0  0  0
 12 14  1  0  0  0  0
 12 26  1  0  0  0  0
 12 27  1  0  0  0  0
 13 28  1  0  0  0  0
 13 29  1  0  0  0  0
 13 30  1  0  0  0  0
 14 15  1  0  0  0  0
 14 31  1  0  0  0  0
 14 32  1  0  0  0  0
 15 16  1  0  0  0  0
 15 17  1  0  0  0  0
 15 33  1  0  0  0  0
M  END
> <PUBCHEM_COMPOUND_CID>
70206904

> <PUBCHEM_COMPOUND_CANONICALIZED>
1

> <PUBCHEM_CACTVS_COMPLEXITY>
305

> <PUBCHEM_CACTVS_HBOND_ACCEPTOR>
5

> <PUBCHEM_CACTVS_HBOND_DONOR>
2

> <PUBCHEM_CACTVS_ROTATABLE_BOND>
8

> <PUBCHEM_CACTVS_SUBSKEYS>
AAADceBwOAAAAAAAAAAAAAAAGAAAAAAAAAAAAAAAAAAAAAAAAAAAGgAACAAADQSAgAACCAAAAgAIAICQCAAAAAAAAAAAAAEAAAAAABYIAAAAQAAFIAAAAAGIyOCOAAAAAAAAAAAAAAAAAAAAAAAAAAAAAA==

> <PUBCHEM_IUPAC_OPENEYE_NAME>
2-(5-cyclopropyl-4-methyl-5-oxo-pentyl)propanedioic acid

> <PUBCHEM_IUPAC_CAS_NAME>
2-(5-cyclopropyl-4-methyl-5-oxopentyl)propanedioic acid

> <PUBCHEM_IUPAC_NAME_MARKUP>
2-(5-cyclopropyl-4-methyl-5-oxopentyl)propanedioic acid

> <PUBCHEM_IUPAC_NAME>
2-(5-cyclopropyl-4-methyl-5-oxopentyl)propanedioic acid

> <PUBCHEM_IUPAC_SYSTEMATIC_NAME>
2-(5-cyclopropyl-4-methyl-5-oxidanylidene-pentyl)propanedioic acid

> <PUBCHEM_IUPAC_TRADITIONAL_NAME>
2-(5-cyclopropyl-5-keto-4-methyl-pentyl)malonic acid

> <PUBCHEM_IUPAC_INCHI>
InChI=1S/C12H18O5/c1-7(10(13)8-5-6-8)3-2-4-9(11(14)15)12(16)17/h7-9H,2-6H2,1H3,(H,14,15)(H,16,17)

> <PUBCHEM_IUPAC_INCHIKEY>
OQLHHMFCOYUBRW-UHFFFAOYSA-N

> <PUBCHEM_XLOGP3_AA>
1.5

> <PUBCHEM_EXACT_MASS>
242.11542367

> <PUBCHEM_MOLECULAR_FORMULA>
C12H18O5

> <PUBCHEM_MOLECULAR_WEIGHT>
242.27

> <PUBCHEM_OPENEYE_CAN_SMILES>
CC(CCCC(C(=O)O)C(=O)O)C(=O)C1CC1

> <PUBCHEM_OPENEYE_ISO_SMILES>
CC(CCCC(C(=O)O)C(=O)O)C(=O)C1CC1

> <PUBCHEM_CACTVS_TPSA>
91.7

> <PUBCHEM_MONOISOTOPIC_WEIGHT>
242.11542367

> <PUBCHEM_TOTAL_CHARGE>
0

> <PUBCHEM_HEAVY_ATOM_COUNT>
17

> <PUBCHEM_ATOM_DEF_STEREO_COUNT>
0

> <PUBCHEM_ATOM_UDEF_STEREO_COUNT>
1

> <PUBCHEM_BOND_DEF_STEREO_COUNT>
0

> <PUBCHEM_BOND_UDEF_STEREO_COUNT>
0

> <PUBCHEM_ISOTOPIC_ATOM_COUNT>
0

> <PUBCHEM_COMPONENT_COUNT>
1

> <PUBCHEM_CACTVS_TAUTO_COUNT>
-1

> <PUBCHEM_COORDINATE_TYPE>
1
5
255

> <PUBCHEM_BONDANNOTATIONS>
10  13  3

$$$$
