 
  -OEChem-10192104232D

 61 65  0     1  0  0  0  0  0999 V2000
    7.3933    0.0724    0.0000 O   0  0  0  0  0  0  0  0  0  0  0  0
    4.9342   -1.0091    0.0000 O   0  0  0  0  0  0  0  0  0  0  0  0
    9.5072   -1.6588    0.0000 O   0  0  0  0  0  0  0  0  0  0  0  0
    2.7717    0.5913    0.0000 O   0  0  0  0  0  0  0  0  0  0  0  0
   11.6212    0.0723    0.0000 O   0  0  0  0  0  0  0  0  0  0  0  0
    8.5734    1.4328    0.0000 O   0  0  0  0  0  0  0  0  0  0  0  0
    5.6698   -0.3318    0.0000 C   0  0  2  0  0  0  0  0  0  0  0  0
    6.6242   -0.6302    0.0000 C   0  0  2  0  0  0  0  0  0  0  0  0
    8.3838   -0.2500    0.0000 C   0  0  2  0  0  0  0  0  0  0  0  0
    8.6063   -1.2249    0.0000 C   0  0  1  0  0  0  0  0  0  0  0  0
    5.4511    0.6440    0.0000 C   0  0  1  0  0  0  0  0  0  0  0  0
    6.8560   -1.6457    0.0000 C   0  0  0  0  0  0  0  0  0  0  0  0
    7.8537   -1.9451    0.0000 C   0  0  0  0  0  0  0  0  0  0  0  0
    3.7610    0.2651    0.0000 C   0  0  1  0  0  0  0  0  0  0  0  0
    3.9797   -0.7107    0.0000 C   0  0  2  0  0  0  0  0  0  0  0  0
    4.4966    0.9425    0.0000 C   0  0  0  0  0  0  0  0  0  0  0  0
    9.0073    0.5319    0.0000 C   0  0  2  0  0  0  0  0  0  0  0  0
   10.4082   -1.2249    0.0000 C   0  0  2  0  0  0  0  0  0  0  0  0
   10.6307   -0.2500    0.0000 C   0  0  1  0  0  0  0  0  0  0  0  0
   10.0073    0.5318    0.0000 C   0  0  0  0  0  0  0  0  0  0  0  0
    3.2244   -1.4279    0.0000 C   0  0  0  0  0  0  0  0  0  0  0  0
   11.1608   -1.9451    0.0000 C   0  0  0  0  0  0  0  0  0  0  0  0
    6.1867    1.3214    0.0000 C   0  0  0  0  0  0  0  0  0  0  0  0
    2.2279   -1.1247    0.0000 C   0  0  0  0  0  0  0  0  0  0  0  0
   12.1585   -1.6458    0.0000 C   0  0  0  0  0  0  0  0  0  0  0  0
    2.0000   -0.1083    0.0000 C   0  0  0  0  0  0  0  0  0  0  0  0
   12.3902   -0.6302    0.0000 C   0  0  0  0  0  0  0  0  0  0  0  0
    5.8558   -1.1612    0.0000 H   0  0  0  0  0  0  0  0  0  0  0  0
    6.4399    0.1996    0.0000 H   0  0  0  0  0  0  0  0  0  0  0  0
    8.1395    0.5642    0.0000 H   0  0  0  0  0  0  0  0  0  0  0  0
    8.7394   -2.0644    0.0000 H   0  0  0  0  0  0  0  0  0  0  0  0
    5.3154    1.2490    0.0000 H   0  0  0  0  0  0  0  0  0  0  0  0
    6.2369   -1.6782    0.0000 H   0  0  0  0  0  0  0  0  0  0  0  0
    6.7821   -2.2613    0.0000 H   0  0  0  0  0  0  0  0  0  0  0  0
    7.5766   -2.4997    0.0000 H   0  0  0  0  0  0  0  0  0  0  0  0
    8.3527   -2.3130    0.0000 H   0  0  0  0  0  0  0  0  0  0  0  0
    3.5814    1.0960    0.0000 H   0  0  0  0  0  0  0  0  0  0  0  0
    4.1720   -1.5386    0.0000 H   0  0  0  0  0  0  0  0  0  0  0  0
    4.7816    1.4931    0.0000 H   0  0  0  0  0  0  0  0  0  0  0  0
    4.0039    1.3187    0.0000 H   0  0  0  0  0  0  0  0  0  0  0  0
    9.3371    1.0568    0.0000 H   0  0  0  0  0  0  0  0  0  0  0  0
   10.2750   -2.0644    0.0000 H   0  0  0  0  0  0  0  0  0  0  0  0
   10.8750    0.5642    0.0000 H   0  0  0  0  0  0  0  0  0  0  0  0
   10.5659    0.8009    0.0000 H   0  0  0  0  0  0  0  0  0  0  0  0
    9.8693    1.1363    0.0000 H   0  0  0  0  0  0  0  0  0  0  0  0
    2.9451   -1.9814    0.0000 H   0  0  0  0  0  0  0  0  0  0  0  0
    3.7220   -1.7978    0.0000 H   0  0  0  0  0  0  0  0  0  0  0  0
   10.6618   -2.3131    0.0000 H   0  0  0  0  0  0  0  0  0  0  0  0
   11.4379   -2.4997    0.0000 H   0  0  0  0  0  0  0  0  0  0  0  0
    6.6067    0.8652    0.0000 H   0  0  0  0  0  0  0  0  0  0  0  0
    6.6429    1.7413    0.0000 H   0  0  0  0  0  0  0  0  0  0  0  0
    5.7668    1.7775    0.0000 H   0  0  0  0  0  0  0  0  0  0  0  0
    1.6086   -1.1548    0.0000 H   0  0  0  0  0  0  0  0  0  0  0  0
    2.1516   -1.7400    0.0000 H   0  0  0  0  0  0  0  0  0  0  0  0
   12.2324   -2.2613    0.0000 H   0  0  0  0  0  0  0  0  0  0  0  0
   12.7776   -1.6783    0.0000 H   0  0  0  0  0  0  0  0  0  0  0  0
    1.6683    0.4155    0.0000 H   0  0  0  0  0  0  0  0  0  0  0  0
    1.4272   -0.3455    0.0000 H   0  0  0  0  0  0  0  0  0  0  0  0
   12.9622   -0.8696    0.0000 H   0  0  0  0  0  0  0  0  0  0  0  0
   12.7240   -0.1077    0.0000 H   0  0  0  0  0  0  0  0  0  0  0  0
    8.9226    1.9451    0.0000 H   0  0  0  0  0  0  0  0  0  0  0  0
  1  8  1  0  0  0  0
  1  9  1  0  0  0  0
  2  7  1  0  0  0  0
  2 15  1  0  0  0  0
  3 10  1  0  0  0  0
  3 18  1  0  0  0  0
  4 14  1  0  0  0  0
  4 26  1  0  0  0  0
  5 19  1  0  0  0  0
  5 27  1  0  0  0  0
 17  6  1  1  0  0  0
  6 61  1  0  0  0  0
  7  8  1  0  0  0  0
  7 11  1  0  0  0  0
  7 28  1  6  0  0  0
  8 12  1  0  0  0  0
  8 29  1  6  0  0  0
  9 10  1  0  0  0  0
  9 17  1  0  0  0  0
  9 30  1  6  0  0  0
 10 13  1  0  0  0  0
 10 31  1  1  0  0  0
 11 16  1  0  0  0  0
 11 23  1  1  0  0  0
 11 32  1  0  0  0  0
 12 13  1  0  0  0  0
 12 33  1  0  0  0  0
 12 34  1  0  0  0  0
 13 35  1  0  0  0  0
 13 36  1  0  0  0  0
 14 15  1  0  0  0  0
 14 16  1  0  0  0  0
 14 37  1  1  0  0  0
 15 21  1  0  0  0  0
 15 38  1  6  0  0  0
 16 39  1  0  0  0  0
 16 40  1  0  0  0  0
 17 20  1  0  0  0  0
 17 41  1  0  0  0  0
 18 19  1  0  0  0  0
 18 22  1  0  0  0  0
 18 42  1  1  0  0  0
 19 20  1  0  0  0  0
 19 43  1  6  0  0  0
 20 44  1  0  0  0  0
 20 45  1  0  0  0  0
 21 24  1  0  0  0  0
 21 46  1  0  0  0  0
 21 47  1  0  0  0  0
 22 25  1  0  0  0  0
 22 48  1  0  0  0  0
 22 49  1  0  0  0  0
 23 50  1  0  0  0  0
 23 51  1  0  0  0  0
 23 52  1  0  0  0  0
 24 26  1  0  0  0  0
 24 53  1  0  0  0  0
 24 54  1  0  0  0  0
 25 27  1  0  0  0  0
 25 55  1  0  0  0  0
 25 56  1  0  0  0  0
 26 57  1  0  0  0  0
 26 58  1  0  0  0  0
 27 59  1  0  0  0  0
 27 60  1  0  0  0  0
M  END
> <PUBCHEM_COMPOUND_CID>
101174443

> <PUBCHEM_COMPOUND_CANONICALIZED>
1

> <PUBCHEM_CACTVS_COMPLEXITY>
515

> <PUBCHEM_CACTVS_HBOND_ACCEPTOR>
6

> <PUBCHEM_CACTVS_HBOND_DONOR>
1

> <PUBCHEM_CACTVS_ROTATABLE_BOND>
1

> <PUBCHEM_CACTVS_SUBSKEYS>
AAADcfB4OAAAAAAAAAAAAAAAAAAAAAAAAAAkSJEgBIAAAACQAAAAGgAACAAADRSggAICAAAABgAAAAAAAAAAAAAAAAAAAAAAAAABEAIAAAACQAAFAAADAAHA4OwOAAAAAAAAAAAAAAAAAAAAAAAAAAAAAA==

> <PUBCHEM_IUPAC_OPENEYE_NAME>
(1S,3R,6S,8S,9S,11R)-6-[(2S,3R,4aR,8aS)-3-methyl-2,3,4,4a,6,7,8,8a-octahydropyrano[3,2-b]pyran-2-yl]-2,7,12-trioxatricyclo[9.4.0.03,8]pentadecan-9-ol

> <PUBCHEM_IUPAC_CAS_NAME>
(1S,3R,6S,8S,9S,11R)-6-[(2S,3R,4aR,8aS)-3-methyl-2,3,4,4a,6,7,8,8a-octahydropyrano[3,2-b]pyran-2-yl]-2,7,12-trioxatricyclo[9.4.0.03,8]pentadecan-9-ol

> <PUBCHEM_IUPAC_NAME_MARKUP>
(1<I>S</I>,3<I>R</I>,6<I>S</I>,8<I>S</I>,9<I>S</I>,11<I>R</I>)-6-[(2<I>S</I>,3<I>R</I>,4<I>a</I><I>R</I>,8<I>a</I><I>S</I>)-3-methyl-2,3,4,4<I>a</I>,6,7,8,8<I>a</I>-octahydropyrano[3,2-b]pyran-2-yl]-2,7,12-trioxatricyclo[9.4.0.0<SUP>3,8</SUP>]pentadecan-9-ol

> <PUBCHEM_IUPAC_NAME>
(1S,3R,6S,8S,9S,11R)-6-[(2S,3R,4aR,8aS)-3-methyl-2,3,4,4a,6,7,8,8a-octahydropyrano[3,2-b]pyran-2-yl]-2,7,12-trioxatricyclo[9.4.0.03,8]pentadecan-9-ol

> <PUBCHEM_IUPAC_SYSTEMATIC_NAME>
(1S,3R,6S,8S,9S,11R)-6-[(2S,3R,4aR,8aS)-3-methyl-2,3,4,4a,6,7,8,8a-octahydropyrano[3,2-b]pyran-2-yl]-2,7,12-trioxatricyclo[9.4.0.03,8]pentadecan-9-ol

> <PUBCHEM_IUPAC_TRADITIONAL_NAME>
(1S,3R,6S,8S,9S,11R)-6-[(2S,3R,4aR,8aS)-3-methyl-2,3,4,4a,6,7,8,8a-octahydropyrano[3,2-b]pyran-2-yl]-2,7,12-trioxatricyclo[9.4.0.03,8]pentadecan-9-ol

> <PUBCHEM_IUPAC_INCHI>
InChI=1S/C21H34O6/c1-12-10-18-15(5-3-8-23-18)26-20(12)16-6-7-17-21(27-16)13(22)11-19-14(25-17)4-2-9-24-19/h12-22H,2-11H2,1H3/t12-,13+,14+,15+,16+,17-,18-,19-,20+,21+/m1/s1

> <PUBCHEM_IUPAC_INCHIKEY>
FIKRKWHIBHGBEV-KSZVLAKPSA-N

> <PUBCHEM_XLOGP3_AA>
1.9

> <PUBCHEM_EXACT_MASS>
382.23553880

> <PUBCHEM_MOLECULAR_FORMULA>
C21H34O6

> <PUBCHEM_MOLECULAR_WEIGHT>
382.5

> <PUBCHEM_OPENEYE_CAN_SMILES>
CC1CC2C(CCCO2)OC1C3CCC4C(O3)C(CC5C(O4)CCCO5)O

> <PUBCHEM_OPENEYE_ISO_SMILES>
C[C@@H]1C[C@@H]2[C@H](CCCO2)O[C@@H]1[C@@H]3CC[C@@H]4[C@@H](O3)[C@H](C[C@@H]5[C@@H](O4)CCCO5)O

> <PUBCHEM_CACTVS_TPSA>
66.4

> <PUBCHEM_MONOISOTOPIC_WEIGHT>
382.23553880

> <PUBCHEM_TOTAL_CHARGE>
0

> <PUBCHEM_HEAVY_ATOM_COUNT>
27

> <PUBCHEM_ATOM_DEF_STEREO_COUNT>
10

> <PUBCHEM_ATOM_UDEF_STEREO_COUNT>
0

> <PUBCHEM_BOND_DEF_STEREO_COUNT>
0

> <PUBCHEM_BOND_UDEF_STEREO_COUNT>
0

> <PUBCHEM_ISOTOPIC_ATOM_COUNT>
0

> <PUBCHEM_COMPONENT_COUNT>
1

> <PUBCHEM_CACTVS_TAUTO_COUNT>
-1

> <PUBCHEM_COORDINATE_TYPE>
1
5
255

> <PUBCHEM_BONDANNOTATIONS>
10  31  5
11  23  5
14  37  5
15  38  6
18  42  5
19  43  6
17  6  5
7  28  6
8  29  6
9  30  6

$$$$
