 
  -OEChem-10192104072D

 28 29  0     0  0  0  0  0  0999 V2000
    2.8660   -0.2014    0.0000 S   0  0  0  0  0  0  0  0  0  0  0  0
    6.3301   -2.2014    0.0000 S   0  0  0  0  0  0  0  0  0  0  0  0
    8.0413    1.5305    0.0000 S   0  0  0  0  0  0  0  0  0  0  0  0
    2.0000    0.2986    0.0000 O   0  5  0  0  0  0  0  0  0  0  0  0
    2.3660   -1.0674    0.0000 O   0  0  0  0  0  0  0  0  0  0  0  0
    3.3660    0.6646    0.0000 O   0  0  0  0  0  0  0  0  0  0  0  0
    7.1962   -2.7014    0.0000 O   0  5  0  0  0  0  0  0  0  0  0  0
    5.8301   -3.0674    0.0000 O   0  0  0  0  0  0  0  0  0  0  0  0
    6.8301   -1.3354    0.0000 O   0  0  0  0  0  0  0  0  0  0  0  0
    4.8255    2.9622    0.0000 O   0  0  0  0  0  0  0  0  0  0  0  0
    6.3776    0.8919    0.0000 N   0  0  0  0  0  0  0  0  0  0  0  0
    6.5468    2.5010    0.0000 N   0  0  0  0  0  0  0  0  0  0  0  0
    4.5981   -0.2014    0.0000 C   0  0  0  0  0  0  0  0  0  0  0  0
    3.7320   -0.7014    0.0000 C   0  0  0  0  0  0  0  0  0  0  0  0
    5.4641   -1.7014    0.0000 C   0  0  0  0  0  0  0  0  0  0  0  0
    5.4641   -0.7014    0.0000 C   0  0  0  0  0  0  0  0  0  0  0  0
    4.5981    0.7986    0.0000 C   0  0  0  0  0  0  0  0  0  0  0  0
    3.7320   -1.7014    0.0000 C   0  0  0  0  0  0  0  0  0  0  0  0
    5.4641    1.2986    0.0000 C   0  0  0  0  0  0  0  0  0  0  0  0
    4.5981   -2.2014    0.0000 C   0  0  0  0  0  0  0  0  0  0  0  0
    5.5686    2.2931    0.0000 C   0  0  0  0  0  0  0  0  0  0  0  0
    7.0468    1.6350    0.0000 C   0  0  0  0  0  0  0  0  0  0  0  0
    6.0010   -0.3914    0.0000 H   0  0  0  0  0  0  0  0  0  0  0  0
    4.0611    1.1086    0.0000 H   0  0  0  0  0  0  0  0  0  0  0  0
    3.1951   -2.0114    0.0000 H   0  0  0  0  0  0  0  0  0  0  0  0
    4.5981   -2.8214    0.0000 H   0  0  0  0  0  0  0  0  0  0  0  0
    6.5066    0.2854    0.0000 H   0  0  0  0  0  0  0  0  0  0  0  0
    6.7990    3.0674    0.0000 H   0  0  0  0  0  0  0  0  0  0  0  0
  1  4  1  0  0  0  0
  1  5  2  0  0  0  0
  1  6  2  0  0  0  0
  1 14  1  0  0  0  0
  2  7  1  0  0  0  0
  2  8  2  0  0  0  0
  2  9  2  0  0  0  0
  2 15  1  0  0  0  0
  3 22  2  0  0  0  0
 10 21  2  0  0  0  0
 11 19  1  0  0  0  0
 11 22  1  0  0  0  0
 11 27  1  0  0  0  0
 12 21  1  0  0  0  0
 12 22  1  0  0  0  0
 12 28  1  0  0  0  0
 13 14  2  0  0  0  0
 13 16  1  0  0  0  0
 13 17  1  0  0  0  0
 14 18  1  0  0  0  0
 15 16  2  0  0  0  0
 15 20  1  0  0  0  0
 16 23  1  0  0  0  0
 17 19  2  0  0  0  0
 17 24  1  0  0  0  0
 18 20  2  0  0  0  0
 18 25  1  0  0  0  0
 19 21  1  0  0  0  0
 20 26  1  0  0  0  0
M  CHG  2   4  -1   7  -1
M  END
> <PUBCHEM_COMPOUND_CID>
137754867

> <PUBCHEM_COMPOUND_CANONICALIZED>
1

> <PUBCHEM_CACTVS_COMPLEXITY>
703

> <PUBCHEM_CACTVS_HBOND_ACCEPTOR>
8

> <PUBCHEM_CACTVS_HBOND_DONOR>
2

> <PUBCHEM_CACTVS_ROTATABLE_BOND>
1

> <PUBCHEM_CACTVS_SUBSKEYS>
AAADcYBzOABgAAAAAAAAAAAAAAAAAWAAAAAwAAAAAAAAAAABAAAAHgQQAAAADAiB2AAxAYLAAAKMAiVSUHDCAEAgAgkIiBiAAMiIYCKAETCQIAAogQIIiYcAgAAOAAgAgAAEAAAAEAEAAAgAAAAAAAAAAA==

> <PUBCHEM_IUPAC_OPENEYE_NAME>
2-[(Z)-(5-oxo-2-thioxo-imidazolidin-4-ylidene)methyl]benzene-1,4-disulfonate

> <PUBCHEM_IUPAC_CAS_NAME>
2-[(Z)-(5-oxo-2-sulfanylidene-4-imidazolidinylidene)methyl]benzene-1,4-disulfonate

> <PUBCHEM_IUPAC_NAME_MARKUP>
2-[(<I>Z</I>)-(5-oxo-2-sulfanylideneimidazolidin-4-ylidene)methyl]benzene-1,4-disulfonate

> <PUBCHEM_IUPAC_NAME>
2-[(Z)-(5-oxo-2-sulfanylideneimidazolidin-4-ylidene)methyl]benzene-1,4-disulfonate

> <PUBCHEM_IUPAC_SYSTEMATIC_NAME>
2-[(Z)-(5-oxidanylidene-2-sulfanylidene-imidazolidin-4-ylidene)methyl]benzene-1,4-disulfonate

> <PUBCHEM_IUPAC_TRADITIONAL_NAME>
2-[(Z)-(5-keto-2-thioxo-imidazolidin-4-ylidene)methyl]benzene-1,4-disulfonate

> <PUBCHEM_IUPAC_INCHI>
InChI=1S/C10H8N2O7S3/c13-9-7(11-10(20)12-9)4-5-3-6(21(14,15)16)1-2-8(5)22(17,18)19/h1-4H,(H,14,15,16)(H,17,18,19)(H2,11,12,13,20)/p-2/b7-4-

> <PUBCHEM_IUPAC_INCHIKEY>
FDICGCWLUWFYHX-DAXSKMNVSA-L

> <PUBCHEM_XLOGP3_AA>
-1

> <PUBCHEM_EXACT_MASS>
361.93371406

> <PUBCHEM_MOLECULAR_FORMULA>
C10H6N2O7S3-2

> <PUBCHEM_MOLECULAR_WEIGHT>
362.4

> <PUBCHEM_OPENEYE_CAN_SMILES>
C1=CC(=C(C=C1S(=O)(=O)[O-])C=C2C(=O)NC(=S)N2)S(=O)(=O)[O-]

> <PUBCHEM_OPENEYE_ISO_SMILES>
C1=CC(=C(C=C1S(=O)(=O)[O-])/C=C\2/C(=O)NC(=S)N2)S(=O)(=O)[O-]

> <PUBCHEM_CACTVS_TPSA>
204

> <PUBCHEM_MONOISOTOPIC_WEIGHT>
361.93371406

> <PUBCHEM_TOTAL_CHARGE>
-2

> <PUBCHEM_HEAVY_ATOM_COUNT>
22

> <PUBCHEM_ATOM_DEF_STEREO_COUNT>
0

> <PUBCHEM_ATOM_UDEF_STEREO_COUNT>
0

> <PUBCHEM_BOND_DEF_STEREO_COUNT>
1

> <PUBCHEM_BOND_UDEF_STEREO_COUNT>
0

> <PUBCHEM_ISOTOPIC_ATOM_COUNT>
0

> <PUBCHEM_COMPONENT_COUNT>
1

> <PUBCHEM_CACTVS_TAUTO_COUNT>
-1

> <PUBCHEM_COORDINATE_TYPE>
1
5
255

> <PUBCHEM_BONDANNOTATIONS>
13  14  8
13  16  8
14  18  8
15  16  8
15  20  8
18  20  8

$$$$
