 
  -OEChem-10192104172D

 83 82  0     1  0  0  0  0  0999 V2000
    8.5622    4.3117    0.0000 O   0  0  0  0  0  0  0  0  0  0  0  0
    6.3301    3.1777    0.0000 O   0  0  0  0  0  0  0  0  0  0  0  0
    5.6962    5.5437    0.0000 O   0  0  0  0  0  0  0  0  0  0  0  0
    6.6962    6.5437    0.0000 O   0  0  0  0  0  0  0  0  0  0  0  0
    9.7942    5.1777    0.0000 O   0  0  0  0  0  0  0  0  0  0  0  0
    9.5710    6.4437    0.0000 O   0  0  0  0  0  0  0  0  0  0  0  0
    7.5622    7.7758    0.0000 O   0  0  0  0  0  0  0  0  0  0  0  0
    8.8282    7.5525    0.0000 O   0  0  0  0  0  0  0  0  0  0  0  0
    7.1962    4.6777    0.0000 C   0  0  3  0  0  0  0  0  0  0  0  0
    8.0622    5.1777    0.0000 C   0  0  3  0  0  0  0  0  0  0  0  0
    7.6962    3.8117    0.0000 C   0  0  0  0  0  0  0  0  0  0  0  0
    7.1962    2.9456    0.0000 C   0  0  0  0  0  0  0  0  0  0  0  0
    6.3301    4.1777    0.0000 C   0  0  0  0  0  0  0  0  0  0  0  0
    7.6962    2.0796    0.0000 C   0  0  0  0  0  0  0  0  0  0  0  0
    7.5622    6.0437    0.0000 C   0  0  0  0  0  0  0  0  0  0  0  0
    6.6962    5.5437    0.0000 C   0  0  0  0  0  0  0  0  0  0  0  0
    7.1962    1.2136    0.0000 C   0  0  0  0  0  0  0  0  0  0  0  0
    5.4641    4.6777    0.0000 C   0  0  0  0  0  0  0  0  0  0  0  0
    8.9282    5.6777    0.0000 C   0  0  0  0  0  0  0  0  0  0  0  0
    7.6962    0.3476    0.0000 C   0  0  0  0  0  0  0  0  0  0  0  0
    4.5981    4.1777    0.0000 C   0  0  0  0  0  0  0  0  0  0  0  0
    7.1962   -0.5185    0.0000 C   0  0  0  0  0  0  0  0  0  0  0  0
    7.6962   -1.3845    0.0000 C   0  0  0  0  0  0  0  0  0  0  0  0
    7.1962   -2.2505    0.0000 C   0  0  0  0  0  0  0  0  0  0  0  0
    3.7320    4.6777    0.0000 C   0  0  0  0  0  0  0  0  0  0  0  0
    8.0622    6.9097    0.0000 C   0  0  0  0  0  0  0  0  0  0  0  0
    7.6962   -3.1165    0.0000 C   0  0  0  0  0  0  0  0  0  0  0  0
    7.1962   -3.9826    0.0000 C   0  0  0  0  0  0  0  0  0  0  0  0
    2.8660    4.1777    0.0000 C   0  0  0  0  0  0  0  0  0  0  0  0
    7.6962   -4.8486    0.0000 C   0  0  0  0  0  0  0  0  0  0  0  0
    7.1962   -5.7146    0.0000 C   0  0  0  0  0  0  0  0  0  0  0  0
    7.6962   -6.5806    0.0000 C   0  0  0  0  0  0  0  0  0  0  0  0
    2.0000    4.6777    0.0000 C   0  0  0  0  0  0  0  0  0  0  0  0
    7.1962   -7.4467    0.0000 C   0  0  0  0  0  0  0  0  0  0  0  0
    7.6962   -8.3127    0.0000 C   0  0  0  0  0  0  0  0  0  0  0  0
    8.1711    3.4131    0.0000 H   0  0  0  0  0  0  0  0  0  0  0  0
    8.1711    4.2102    0.0000 H   0  0  0  0  0  0  0  0  0  0  0  0
    6.7212    3.3442    0.0000 H   0  0  0  0  0  0  0  0  0  0  0  0
    6.7212    2.5471    0.0000 H   0  0  0  0  0  0  0  0  0  0  0  0
    8.1711    1.6811    0.0000 H   0  0  0  0  0  0  0  0  0  0  0  0
    8.1711    2.4781    0.0000 H   0  0  0  0  0  0  0  0  0  0  0  0
    7.0872    6.4422    0.0000 H   0  0  0  0  0  0  0  0  0  0  0  0
    7.0872    5.6452    0.0000 H   0  0  0  0  0  0  0  0  0  0  0  0
    6.7212    1.6121    0.0000 H   0  0  0  0  0  0  0  0  0  0  0  0
    6.7212    0.8151    0.0000 H   0  0  0  0  0  0  0  0  0  0  0  0
    5.8626    5.1526    0.0000 H   0  0  0  0  0  0  0  0  0  0  0  0
    5.0656    5.1526    0.0000 H   0  0  0  0  0  0  0  0  0  0  0  0
    8.1711   -0.0510    0.0000 H   0  0  0  0  0  0  0  0  0  0  0  0
    8.1711    0.7461    0.0000 H   0  0  0  0  0  0  0  0  0  0  0  0
    4.1996    3.7027    0.0000 H   0  0  0  0  0  0  0  0  0  0  0  0
    4.9966    3.7027    0.0000 H   0  0  0  0  0  0  0  0  0  0  0  0
    6.7212   -0.1199    0.0000 H   0  0  0  0  0  0  0  0  0  0  0  0
    6.7212   -0.9170    0.0000 H   0  0  0  0  0  0  0  0  0  0  0  0
    9.1822    4.3117    0.0000 H   0  0  0  0  0  0  0  0  0  0  0  0
    8.1711   -1.7830    0.0000 H   0  0  0  0  0  0  0  0  0  0  0  0
    8.1711   -0.9860    0.0000 H   0  0  0  0  0  0  0  0  0  0  0  0
    6.7212   -1.8520    0.0000 H   0  0  0  0  0  0  0  0  0  0  0  0
    6.7212   -2.6490    0.0000 H   0  0  0  0  0  0  0  0  0  0  0  0
    4.1306    5.1526    0.0000 H   0  0  0  0  0  0  0  0  0  0  0  0
    3.3335    5.1526    0.0000 H   0  0  0  0  0  0  0  0  0  0  0  0
    8.1711   -3.5151    0.0000 H   0  0  0  0  0  0  0  0  0  0  0  0
    8.1711   -2.7180    0.0000 H   0  0  0  0  0  0  0  0  0  0  0  0
    6.7212   -3.5840    0.0000 H   0  0  0  0  0  0  0  0  0  0  0  0
    6.7212   -4.3811    0.0000 H   0  0  0  0  0  0  0  0  0  0  0  0
    5.3862    6.0806    0.0000 H   0  0  0  0  0  0  0  0  0  0  0  0
    2.4675    3.7027    0.0000 H   0  0  0  0  0  0  0  0  0  0  0  0
    3.2646    3.7027    0.0000 H   0  0  0  0  0  0  0  0  0  0  0  0
    8.1711   -5.2471    0.0000 H   0  0  0  0  0  0  0  0  0  0  0  0
    8.1711   -4.4501    0.0000 H   0  0  0  0  0  0  0  0  0  0  0  0
   10.3312    5.4877    0.0000 H   0  0  0  0  0  0  0  0  0  0  0  0
    6.7212   -5.3161    0.0000 H   0  0  0  0  0  0  0  0  0  0  0  0
    6.7212   -6.1132    0.0000 H   0  0  0  0  0  0  0  0  0  0  0  0
    8.1711   -6.9792    0.0000 H   0  0  0  0  0  0  0  0  0  0  0  0
    8.1711   -6.1821    0.0000 H   0  0  0  0  0  0  0  0  0  0  0  0
    2.3100    5.2146    0.0000 H   0  0  0  0  0  0  0  0  0  0  0  0
    1.4631    4.9877    0.0000 H   0  0  0  0  0  0  0  0  0  0  0  0
    1.6900    4.1408    0.0000 H   0  0  0  0  0  0  0  0  0  0  0  0
    7.8722    8.3127    0.0000 H   0  0  0  0  0  0  0  0  0  0  0  0
    6.7212   -7.0481    0.0000 H   0  0  0  0  0  0  0  0  0  0  0  0
    6.7212   -7.8452    0.0000 H   0  0  0  0  0  0  0  0  0  0  0  0
    7.1592   -8.6227    0.0000 H   0  0  0  0  0  0  0  0  0  0  0  0
    8.0062   -8.8496    0.0000 H   0  0  0  0  0  0  0  0  0  0  0  0
    8.2331   -8.0027    0.0000 H   0  0  0  0  0  0  0  0  0  0  0  0
  1 10  1  0  0  0  0
  1 54  1  0  0  0  0
  2 13  2  0  0  0  0
  3 16  1  0  0  0  0
  3 65  1  0  0  0  0
  4 16  2  0  0  0  0
  5 19  1  0  0  0  0
  5 70  1  0  0  0  0
  6 19  2  0  0  0  0
  7 26  1  0  0  0  0
  7 78  1  0  0  0  0
  8 26  2  0  0  0  0
  9 10  1  0  0  0  0
  9 11  1  0  0  0  0
  9 13  1  0  0  0  0
  9 16  1  0  0  0  0
 10 15  1  0  0  0  0
 10 19  1  0  0  0  0
 11 12  1  0  0  0  0
 11 36  1  0  0  0  0
 11 37  1  0  0  0  0
 12 14  1  0  0  0  0
 12 38  1  0  0  0  0
 12 39  1  0  0  0  0
 13 18  1  0  0  0  0
 14 17  1  0  0  0  0
 14 40  1  0  0  0  0
 14 41  1  0  0  0  0
 15 26  1  0  0  0  0
 15 42  1  0  0  0  0
 15 43  1  0  0  0  0
 17 20  1  0  0  0  0
 17 44  1  0  0  0  0
 17 45  1  0  0  0  0
 18 21  1  0  0  0  0
 18 46  1  0  0  0  0
 18 47  1  0  0  0  0
 20 22  1  0  0  0  0
 20 48  1  0  0  0  0
 20 49  1  0  0  0  0
 21 25  1  0  0  0  0
 21 50  1  0  0  0  0
 21 51  1  0  0  0  0
 22 23  1  0  0  0  0
 22 52  1  0  0  0  0
 22 53  1  0  0  0  0
 23 24  1  0  0  0  0
 23 55  1  0  0  0  0
 23 56  1  0  0  0  0
 24 27  1  0  0  0  0
 24 57  1  0  0  0  0
 24 58  1  0  0  0  0
 25 29  1  0  0  0  0
 25 59  1  0  0  0  0
 25 60  1  0  0  0  0
 27 28  1  0  0  0  0
 27 61  1  0  0  0  0
 27 62  1  0  0  0  0
 28 30  1  0  0  0  0
 28 63  1  0  0  0  0
 28 64  1  0  0  0  0
 29 33  1  0  0  0  0
 29 66  1  0  0  0  0
 29 67  1  0  0  0  0
 30 31  1  0  0  0  0
 30 68  1  0  0  0  0
 30 69  1  0  0  0  0
 31 32  1  0  0  0  0
 31 71  1  0  0  0  0
 31 72  1  0  0  0  0
 32 34  1  0  0  0  0
 32 73  1  0  0  0  0
 32 74  1  0  0  0  0
 33 75  1  0  0  0  0
 33 76  1  0  0  0  0
 33 77  1  0  0  0  0
 34 35  1  0  0  0  0
 34 79  1  0  0  0  0
 34 80  1  0  0  0  0
 35 81  1  0  0  0  0
 35 82  1  0  0  0  0
 35 83  1  0  0  0  0
M  END
> <PUBCHEM_COMPOUND_CID>
88541388

> <PUBCHEM_COMPOUND_CANONICALIZED>
1

> <PUBCHEM_CACTVS_COMPLEXITY>
647

> <PUBCHEM_CACTVS_HBOND_ACCEPTOR>
8

> <PUBCHEM_CACTVS_HBOND_DONOR>
4

> <PUBCHEM_CACTVS_ROTATABLE_BOND>
24

> <PUBCHEM_CACTVS_SUBSKEYS>
AAADcfB4PAAAAAAAAAAAAAAAAAAAAAAAAAAAAAAAAAAAAAAAAAAAGgAACAAADkSAgAACCAAAAgAIAICQCAIAAAAAAAAAAAFAAAABABYIAAAAQAAFIAABAAHL7uCvgAAAAAAAAAAAAAAAAAAAAAAAAAAAAA==

> <PUBCHEM_IUPAC_OPENEYE_NAME>
3-hexanoyl-2-hydroxy-octadecane-1,2,3-tricarboxylic acid

> <PUBCHEM_IUPAC_CAS_NAME>
2-hydroxy-3-(1-oxohexyl)octadecane-1,2,3-tricarboxylic acid

> <PUBCHEM_IUPAC_NAME_MARKUP>
3-hexanoyl-2-hydroxyoctadecane-1,2,3-tricarboxylic acid

> <PUBCHEM_IUPAC_NAME>
3-hexanoyl-2-hydroxyoctadecane-1,2,3-tricarboxylic acid

> <PUBCHEM_IUPAC_SYSTEMATIC_NAME>
3-hexanoyl-2-oxidanyl-octadecane-1,2,3-tricarboxylic acid

> <PUBCHEM_IUPAC_TRADITIONAL_NAME>
3-caproyl-2-hydroxy-octadecane-1,2,3-tricarboxylic acid

> <PUBCHEM_IUPAC_INCHI>
InChI=1S/C27H48O8/c1-3-5-7-8-9-10-11-12-13-14-15-16-18-20-26(24(31)32,22(28)19-17-6-4-2)27(35,25(33)34)21-23(29)30/h35H,3-21H2,1-2H3,(H,29,30)(H,31,32)(H,33,34)

> <PUBCHEM_IUPAC_INCHIKEY>
OYOLYQSRGRDKBE-UHFFFAOYSA-N

> <PUBCHEM_XLOGP3_AA>
7.6

> <PUBCHEM_EXACT_MASS>
500.33491849

> <PUBCHEM_MOLECULAR_FORMULA>
C27H48O8

> <PUBCHEM_MOLECULAR_WEIGHT>
500.7

> <PUBCHEM_OPENEYE_CAN_SMILES>
CCCCCCCCCCCCCCCC(C(=O)CCCCC)(C(=O)O)C(CC(=O)O)(C(=O)O)O

> <PUBCHEM_OPENEYE_ISO_SMILES>
CCCCCCCCCCCCCCCC(C(=O)CCCCC)(C(=O)O)C(CC(=O)O)(C(=O)O)O

> <PUBCHEM_CACTVS_TPSA>
149

> <PUBCHEM_MONOISOTOPIC_WEIGHT>
500.33491849

> <PUBCHEM_TOTAL_CHARGE>
0

> <PUBCHEM_HEAVY_ATOM_COUNT>
35

> <PUBCHEM_ATOM_DEF_STEREO_COUNT>
0

> <PUBCHEM_ATOM_UDEF_STEREO_COUNT>
2

> <PUBCHEM_BOND_DEF_STEREO_COUNT>
0

> <PUBCHEM_BOND_UDEF_STEREO_COUNT>
0

> <PUBCHEM_ISOTOPIC_ATOM_COUNT>
0

> <PUBCHEM_COMPONENT_COUNT>
1

> <PUBCHEM_CACTVS_TAUTO_COUNT>
-1

> <PUBCHEM_COORDINATE_TYPE>
1
5
255

> <PUBCHEM_BONDANNOTATIONS>
10  1  3
9  11  3

$$$$
