 
  -OEChem-10192104282D

 69 70  0     1  0  0  0  0  0999 V2000
    9.7942    2.4400    0.0000 O   0  0  0  0  0  0  0  0  0  0  0  0
    8.9282    3.9400    0.0000 O   0  0  0  0  0  0  0  0  0  0  0  0
   10.6603   -0.0600    0.0000 O   0  0  0  0  0  0  0  0  0  0  0  0
    3.7320    2.9400    0.0000 O   0  0  0  0  0  0  0  0  0  0  0  0
    8.0622   -1.5600    0.0000 O   0  0  0  0  0  0  0  0  0  0  0  0
    6.3301    4.4400    0.0000 O   0  0  0  0  0  0  0  0  0  0  0  0
    7.1962   -0.0600    0.0000 O   0  0  0  0  0  0  0  0  0  0  0  0
    4.5981    4.4400    0.0000 O   0  0  0  0  0  0  0  0  0  0  0  0
   12.3923   -2.0600    0.0000 O   0  0  0  0  0  0  0  0  0  0  0  0
    2.8660    2.4400    0.0000 O   0  0  0  0  0  0  0  0  0  0  0  0
   11.5263   -0.5600    0.0000 O   0  0  0  0  0  0  0  0  0  0  0  0
    2.0000    0.9400    0.0000 O   0  0  0  0  0  0  0  0  0  0  0  0
    8.0622    2.4400    0.0000 N   0  0  0  0  0  0  0  0  0  0  0  0
    8.9282   -0.0600    0.0000 N   0  0  0  0  0  0  0  0  0  0  0  0
    5.4641    2.9400    0.0000 N   0  0  0  0  0  0  0  0  0  0  0  0
    9.7942   -1.5600    0.0000 N   0  0  0  0  0  0  0  0  0  0  0  0
    4.5981    1.4400    0.0000 N   0  0  0  0  0  0  0  0  0  0  0  0
    8.0622    1.4400    0.0000 C   0  0  0  0  0  0  0  0  0  0  0  0
    7.1962    2.9400    0.0000 C   0  0  0  0  0  0  0  0  0  0  0  0
    8.9282    0.9400    0.0000 C   0  0  0  0  0  0  0  0  0  0  0  0
    6.3301    2.4400    0.0000 C   0  0  0  0  0  0  0  0  0  0  0  0
   10.6603   -2.0600    0.0000 C   0  0  3  0  0  0  0  0  0  0  0  0
    3.7320    0.9400    0.0000 C   0  0  3  0  0  0  0  0  0  0  0  0
    8.9282    2.9400    0.0000 C   0  0  0  0  0  0  0  0  0  0  0  0
    9.7942   -0.5600    0.0000 C   0  0  0  0  0  0  0  0  0  0  0  0
    4.5981    2.4400    0.0000 C   0  0  0  0  0  0  0  0  0  0  0  0
   10.6603   -3.0600    0.0000 C   0  0  0  0  0  0  0  0  0  0  0  0
    3.7320   -0.0600    0.0000 C   0  0  0  0  0  0  0  0  0  0  0  0
    8.0622   -0.5600    0.0000 C   0  0  0  0  0  0  0  0  0  0  0  0
    5.4641    3.9400    0.0000 C   0  0  0  0  0  0  0  0  0  0  0  0
   11.5263   -1.5600    0.0000 C   0  0  0  0  0  0  0  0  0  0  0  0
    2.8660    1.4400    0.0000 C   0  0  0  0  0  0  0  0  0  0  0  0
    9.7942   -3.5600    0.0000 C   0  0  0  0  0  0  0  0  0  0  0  0
    4.5981   -0.5600    0.0000 C   0  0  0  0  0  0  0  0  0  0  0  0
   11.5263   -3.5600    0.0000 C   0  0  0  0  0  0  0  0  0  0  0  0
    2.8660   -0.5600    0.0000 C   0  0  0  0  0  0  0  0  0  0  0  0
    9.7942   -4.5600    0.0000 C   0  0  0  0  0  0  0  0  0  0  0  0
    4.5981   -1.5600    0.0000 C   0  0  0  0  0  0  0  0  0  0  0  0
   11.5263   -4.5600    0.0000 C   0  0  0  0  0  0  0  0  0  0  0  0
    2.8660   -1.5600    0.0000 C   0  0  0  0  0  0  0  0  0  0  0  0
   10.6603   -5.0600    0.0000 C   0  0  0  0  0  0  0  0  0  0  0  0
    3.7320   -2.0600    0.0000 C   0  0  0  0  0  0  0  0  0  0  0  0
    7.4516    1.5477    0.0000 H   0  0  0  0  0  0  0  0  0  0  0  0
    7.8501    0.8574    0.0000 H   0  0  0  0  0  0  0  0  0  0  0  0
    7.5947    3.4150    0.0000 H   0  0  0  0  0  0  0  0  0  0  0  0
    6.7976    3.4150    0.0000 H   0  0  0  0  0  0  0  0  0  0  0  0
    9.5388    0.8323    0.0000 H   0  0  0  0  0  0  0  0  0  0  0  0
    9.1403    1.5226    0.0000 H   0  0  0  0  0  0  0  0  0  0  0  0
    5.9316    1.9650    0.0000 H   0  0  0  0  0  0  0  0  0  0  0  0
    6.7287    1.9650    0.0000 H   0  0  0  0  0  0  0  0  0  0  0  0
   10.6603   -1.4400    0.0000 H   0  0  0  0  0  0  0  0  0  0  0  0
    4.2690    0.6300    0.0000 H   0  0  0  0  0  0  0  0  0  0  0  0
    9.2573   -1.8700    0.0000 H   0  0  0  0  0  0  0  0  0  0  0  0
    5.1350    1.1300    0.0000 H   0  0  0  0  0  0  0  0  0  0  0  0
    9.2573   -3.2500    0.0000 H   0  0  0  0  0  0  0  0  0  0  0  0
    5.1350   -0.2500    0.0000 H   0  0  0  0  0  0  0  0  0  0  0  0
   12.0632   -3.2500    0.0000 H   0  0  0  0  0  0  0  0  0  0  0  0
    2.3291   -0.2500    0.0000 H   0  0  0  0  0  0  0  0  0  0  0  0
   10.3312    2.7500    0.0000 H   0  0  0  0  0  0  0  0  0  0  0  0
    9.2573   -4.8700    0.0000 H   0  0  0  0  0  0  0  0  0  0  0  0
    5.1350   -1.8700    0.0000 H   0  0  0  0  0  0  0  0  0  0  0  0
   12.0632   -4.8700    0.0000 H   0  0  0  0  0  0  0  0  0  0  0  0
    2.3291   -1.8700    0.0000 H   0  0  0  0  0  0  0  0  0  0  0  0
   10.6603   -5.6800    0.0000 H   0  0  0  0  0  0  0  0  0  0  0  0
    3.7320   -2.6800    0.0000 H   0  0  0  0  0  0  0  0  0  0  0  0
    7.5252   -1.8700    0.0000 H   0  0  0  0  0  0  0  0  0  0  0  0
    6.3301    5.0600    0.0000 H   0  0  0  0  0  0  0  0  0  0  0  0
   12.9292   -1.7500    0.0000 H   0  0  0  0  0  0  0  0  0  0  0  0
    2.3291    2.7500    0.0000 H   0  0  0  0  0  0  0  0  0  0  0  0
  1 24  1  0  0  0  0
  1 59  1  0  0  0  0
  2 24  2  0  0  0  0
  3 25  2  0  0  0  0
  4 26  2  0  0  0  0
  5 29  1  0  0  0  0
  5 66  1  0  0  0  0
  6 30  1  0  0  0  0
  6 67  1  0  0  0  0
  7 29  2  0  0  0  0
  8 30  2  0  0  0  0
  9 31  1  0  0  0  0
  9 68  1  0  0  0  0
 10 32  1  0  0  0  0
 10 69  1  0  0  0  0
 11 31  2  0  0  0  0
 12 32  2  0  0  0  0
 13 18  1  0  0  0  0
 13 19  1  0  0  0  0
 13 24  1  0  0  0  0
 14 20  1  0  0  0  0
 14 25  1  0  0  0  0
 14 29  1  0  0  0  0
 15 21  1  0  0  0  0
 15 26  1  0  0  0  0
 15 30  1  0  0  0  0
 16 22  1  0  0  0  0
 16 25  1  0  0  0  0
 16 53  1  0  0  0  0
 17 23  1  0  0  0  0
 17 26  1  0  0  0  0
 17 54  1  0  0  0  0
 18 20  1  0  0  0  0
 18 43  1  0  0  0  0
 18 44  1  0  0  0  0
 19 21  1  0  0  0  0
 19 45  1  0  0  0  0
 19 46  1  0  0  0  0
 20 47  1  0  0  0  0
 20 48  1  0  0  0  0
 21 49  1  0  0  0  0
 21 50  1  0  0  0  0
 22 27  1  0  0  0  0
 22 31  1  0  0  0  0
 22 51  1  0  0  0  0
 23 28  1  0  0  0  0
 23 32  1  0  0  0  0
 23 52  1  0  0  0  0
 27 33  2  0  0  0  0
 27 35  1  0  0  0  0
 28 34  2  0  0  0  0
 28 36  1  0  0  0  0
 33 37  1  0  0  0  0
 33 55  1  0  0  0  0
 34 38  1  0  0  0  0
 34 56  1  0  0  0  0
 35 39  2  0  0  0  0
 35 57  1  0  0  0  0
 36 40  2  0  0  0  0
 36 58  1  0  0  0  0
 37 41  2  0  0  0  0
 37 60  1  0  0  0  0
 38 42  2  0  0  0  0
 38 61  1  0  0  0  0
 39 41  1  0  0  0  0
 39 62  1  0  0  0  0
 40 42  1  0  0  0  0
 40 63  1  0  0  0  0
 41 64  1  0  0  0  0
 42 65  1  0  0  0  0
M  END
> <PUBCHEM_COMPOUND_CID>
9960132

> <PUBCHEM_COMPOUND_CANONICALIZED>
1

> <PUBCHEM_CACTVS_COMPLEXITY>
940

> <PUBCHEM_CACTVS_HBOND_ACCEPTOR>
12

> <PUBCHEM_CACTVS_HBOND_DONOR>
7

> <PUBCHEM_CACTVS_ROTATABLE_BOND>
12

> <PUBCHEM_CACTVS_SUBSKEYS>
AAADceB7vAAAAAAAAAAAAAAAAAAAAAAAAAAwYAAAAAAAAAABQAAAHgAQCAAADCjBmAQxCIPAAgCIAiDSGACCAAAgAAAIiIGIBIiKYDKAlTGUYAhsxyOYiAeYyKCOAAAAAAAAAAAAAAAAAAAAAAAAAAAAAA==

> <PUBCHEM_IUPAC_OPENEYE_NAME>
2-[[carboxy-[2-[carboxy-[2-[carboxy-[[carboxy(phenyl)methyl]carbamoyl]amino]ethyl]amino]ethyl]carbamoyl]amino]-2-phenyl-acetic acid

> <PUBCHEM_IUPAC_CAS_NAME>
2-[[[carboxy-[2-[carboxy-[2-[carboxy-[[[carboxy(phenyl)methyl]amino]-oxomethyl]amino]ethyl]amino]ethyl]amino]-oxomethyl]amino]-2-phenylacetic acid

> <PUBCHEM_IUPAC_NAME_MARKUP>
2-[[carboxy-[2-[carboxy-[2-[carboxy-[[carboxy(phenyl)methyl]carbamoyl]amino]ethyl]amino]ethyl]carbamoyl]amino]-2-phenylacetic acid

> <PUBCHEM_IUPAC_NAME>
2-[[carboxy-[2-[carboxy-[2-[carboxy-[[carboxy(phenyl)methyl]carbamoyl]amino]ethyl]amino]ethyl]carbamoyl]amino]-2-phenylacetic acid

> <PUBCHEM_IUPAC_SYSTEMATIC_NAME>
2-[[carboxy-[2-[carboxy-[2-[carboxy-[(2-oxidanyl-2-oxidanylidene-1-phenyl-ethyl)carbamoyl]amino]ethyl]amino]ethyl]carbamoyl]amino]-2-phenyl-ethanoic acid

> <PUBCHEM_IUPAC_TRADITIONAL_NAME>
2-[[carboxy-[2-[carboxy-[2-[carboxy-[[carboxy(phenyl)methyl]carbamoyl]amino]ethyl]amino]ethyl]carbamoyl]amino]-2-phenyl-acetic acid

> <PUBCHEM_IUPAC_INCHI>
InChI=1S/C25H27N5O12/c31-19(32)17(15-7-3-1-4-8-15)26-21(35)29(24(39)40)13-11-28(23(37)38)12-14-30(25(41)42)22(36)27-18(20(33)34)16-9-5-2-6-10-16/h1-10,17-18H,11-14H2,(H,26,35)(H,27,36)(H,31,32)(H,33,34)(H,37,38)(H,39,40)(H,41,42)

> <PUBCHEM_IUPAC_INCHIKEY>
YSGLEUVEUDPNBD-UHFFFAOYSA-N

> <PUBCHEM_XLOGP3_AA>
3

> <PUBCHEM_EXACT_MASS>
589.16562131

> <PUBCHEM_MOLECULAR_FORMULA>
C25H27N5O12

> <PUBCHEM_MOLECULAR_WEIGHT>
589.5

> <PUBCHEM_OPENEYE_CAN_SMILES>
C1=CC=C(C=C1)C(C(=O)O)NC(=O)N(CCN(CCN(C(=O)NC(C2=CC=CC=C2)C(=O)O)C(=O)O)C(=O)O)C(=O)O

> <PUBCHEM_OPENEYE_ISO_SMILES>
C1=CC=C(C=C1)C(C(=O)O)NC(=O)N(CCN(CCN(C(=O)NC(C2=CC=CC=C2)C(=O)O)C(=O)O)C(=O)O)C(=O)O

> <PUBCHEM_CACTVS_TPSA>
254

> <PUBCHEM_MONOISOTOPIC_WEIGHT>
589.16562131

> <PUBCHEM_TOTAL_CHARGE>
0

> <PUBCHEM_HEAVY_ATOM_COUNT>
42

> <PUBCHEM_ATOM_DEF_STEREO_COUNT>
0

> <PUBCHEM_ATOM_UDEF_STEREO_COUNT>
2

> <PUBCHEM_BOND_DEF_STEREO_COUNT>
0

> <PUBCHEM_BOND_UDEF_STEREO_COUNT>
0

> <PUBCHEM_ISOTOPIC_ATOM_COUNT>
0

> <PUBCHEM_COMPONENT_COUNT>
1

> <PUBCHEM_CACTVS_TAUTO_COUNT>
-1

> <PUBCHEM_COORDINATE_TYPE>
1
5
255

> <PUBCHEM_BONDANNOTATIONS>
22  31  3
23  32  3
27  33  8
27  35  8
28  34  8
28  36  8
33  37  8
34  38  8
35  39  8
36  40  8
37  41  8
38  42  8
39  41  8
40  42  8

$$$$
