 
  -OEChem-10192103312D

 63 67  0     1  0  0  0  0  0999 V2000
    5.0453   -2.0326    0.0000 P   0  0  3  0  0  0  0  0  0  0  0  0
    6.0486    0.8882    0.0000 O   0  0  0  0  0  0  0  0  0  0  0  0
    8.5351    0.0877    0.0000 O   0  0  0  0  0  0  0  0  0  0  0  0
    8.5323    1.6972    0.0000 O   0  0  0  0  0  0  0  0  0  0  0  0
    5.3526   -1.0810    0.0000 O   0  0  0  0  0  0  0  0  0  0  0  0
    7.9079    3.4534    0.0000 O   0  0  0  0  0  0  0  0  0  0  0  0
    4.0937   -1.7253    0.0000 O   0  0  0  0  0  0  0  0  0  0  0  0
    5.9969   -2.3400    0.0000 O   0  0  0  0  0  0  0  0  0  0  0  0
    3.0897   -2.4518    0.0000 O   0  0  0  0  0  0  0  0  0  0  0  0
    6.3243    2.6487    0.0000 N   0  0  0  0  0  0  0  0  0  0  0  0
    6.3243    4.2582    0.0000 N   0  0  0  0  0  0  0  0  0  0  0  0
    4.5121    2.4534    0.0000 N   0  0  0  0  0  0  0  0  0  0  0  0
    4.7379   -2.9842    0.0000 N   0  0  0  0  0  0  0  0  0  0  0  0
    2.5022   -4.4561    0.0000 N   0  0  0  0  0  0  0  0  0  0  0  0
    3.6461    3.9534    0.0000 N   0  0  0  0  0  0  0  0  0  0  0  0
    4.5121    5.4534    0.0000 N   0  0  0  0  0  0  0  0  0  0  0  0
    7.5883    0.3908    0.0000 C   0  0  1  0  0  0  0  0  0  0  0  0
    7.5866    1.3908    0.0000 C   0  0  2  0  0  0  0  0  0  0  0  0
    6.6378    0.0802    0.0000 C   0  0  1  0  0  0  0  0  0  0  0  0
    6.6350    1.6982    0.0000 C   0  0  1  0  0  0  0  0  0  0  0  0
    9.1173    0.8935    0.0000 C   0  0  0  0  0  0  0  0  0  0  0  0
    6.3304   -0.8714    0.0000 C   0  0  0  0  0  0  0  0  0  0  0  0
    9.9273    0.3071    0.0000 C   0  0  0  0  0  0  0  0  0  0  0  0
    9.9253    1.4826    0.0000 C   0  0  0  0  0  0  0  0  0  0  0  0
    5.3781    2.9534    0.0000 C   0  0  0  0  0  0  0  0  0  0  0  0
    6.9079    3.4534    0.0000 C   0  0  0  0  0  0  0  0  0  0  0  0
    5.3781    3.9534    0.0000 C   0  0  0  0  0  0  0  0  0  0  0  0
    3.4527   -4.1454    0.0000 C   0  0  1  0  0  0  0  0  0  0  0  0
    4.0419   -4.9534    0.0000 C   0  0  0  0  0  0  0  0  0  0  0  0
    3.4555   -5.7634    0.0000 C   0  0  0  0  0  0  0  0  0  0  0  0
    4.5121    4.4534    0.0000 C   0  0  0  0  0  0  0  0  0  0  0  0
    2.5040   -5.4561    0.0000 C   0  0  0  0  0  0  0  0  0  0  0  0
    3.7601   -3.1938    0.0000 C   0  0  0  0  0  0  0  0  0  0  0  0
    3.6461    2.9534    0.0000 C   0  0  0  0  0  0  0  0  0  0  0  0
    3.8841   -0.7475    0.0000 C   0  0  0  0  0  0  0  0  0  0  0  0
    7.5909   -0.4592    0.0000 H   0  0  0  0  0  0  0  0  0  0  0  0
    7.5862    2.2408    0.0000 H   0  0  0  0  0  0  0  0  0  0  0  0
    6.0256   -0.0179    0.0000 H   0  0  0  0  0  0  0  0  0  0  0  0
    6.0225    1.7941    0.0000 H   0  0  0  0  0  0  0  0  0  0  0  0
    6.3531   -1.4910    0.0000 H   0  0  0  0  0  0  0  0  0  0  0  0
    6.9445   -0.9567    0.0000 H   0  0  0  0  0  0  0  0  0  0  0  0
    9.5638   -0.1951    0.0000 H   0  0  0  0  0  0  0  0  0  0  0  0
   10.4295   -0.0565    0.0000 H   0  0  0  0  0  0  0  0  0  0  0  0
   10.2909    0.8093    0.0000 H   0  0  0  0  0  0  0  0  0  0  0  0
   10.2906    0.9817    0.0000 H   0  0  0  0  0  0  0  0  0  0  0  0
   10.4262    1.8479    0.0000 H   0  0  0  0  0  0  0  0  0  0  0  0
    9.5600    1.9836    0.0000 H   0  0  0  0  0  0  0  0  0  0  0  0
    6.5169    4.8475    0.0000 H   0  0  0  0  0  0  0  0  0  0  0  0
    3.0136   -3.7078    0.0000 H   0  0  0  0  0  0  0  0  0  0  0  0
    4.5034   -5.3675    0.0000 H   0  0  0  0  0  0  0  0  0  0  0  0
    4.5020   -4.5378    0.0000 H   0  0  0  0  0  0  0  0  0  0  0  0
    3.2043   -6.3303    0.0000 H   0  0  0  0  0  0  0  0  0  0  0  0
    3.9930   -6.0725    0.0000 H   0  0  0  0  0  0  0  0  0  0  0  0
    1.8872   -5.3923    0.0000 H   0  0  0  0  0  0  0  0  0  0  0  0
    2.3761   -6.0627    0.0000 H   0  0  0  0  0  0  0  0  0  0  0  0
    5.1536   -3.4442    0.0000 H   0  0  0  0  0  0  0  0  0  0  0  0
    2.0000   -4.0925    0.0000 H   0  0  0  0  0  0  0  0  0  0  0  0
    3.1091    2.6434    0.0000 H   0  0  0  0  0  0  0  0  0  0  0  0
    3.9752    5.7634    0.0000 H   0  0  0  0  0  0  0  0  0  0  0  0
    5.0490    5.7634    0.0000 H   0  0  0  0  0  0  0  0  0  0  0  0
    4.4903   -0.6175    0.0000 H   0  0  0  0  0  0  0  0  0  0  0  0
    3.7541   -0.1412    0.0000 H   0  0  0  0  0  0  0  0  0  0  0  0
    3.2778   -0.8774    0.0000 H   0  0  0  0  0  0  0  0  0  0  0  0
  1  5  1  0  0  0  0
  1  7  1  0  0  0  0
  1  8  2  0  0  0  0
  1 13  1  0  0  0  0
  2 19  1  0  0  0  0
  2 20  1  0  0  0  0
  3 17  1  0  0  0  0
  3 21  1  0  0  0  0
  4 18  1  0  0  0  0
  4 21  1  0  0  0  0
  5 22  1  0  0  0  0
  6 26  2  0  0  0  0
  7 35  1  0  0  0  0
  9 33  2  0  0  0  0
 20 10  1  1  0  0  0
 10 25  1  0  0  0  0
 10 26  1  0  0  0  0
 11 26  1  0  0  0  0
 11 27  1  0  0  0  0
 11 48  1  0  0  0  0
 12 25  2  0  0  0  0
 12 34  1  0  0  0  0
 13 33  1  0  0  0  0
 13 56  1  0  0  0  0
 14 28  1  0  0  0  0
 14 32  1  0  0  0  0
 14 57  1  0  0  0  0
 15 31  1  0  0  0  0
 15 34  2  0  0  0  0
 16 31  1  0  0  0  0
 16 59  1  0  0  0  0
 16 60  1  0  0  0  0
 17 18  1  0  0  0  0
 17 19  1  0  0  0  0
 17 36  1  1  0  0  0
 18 20  1  0  0  0  0
 18 37  1  1  0  0  0
 19 22  1  1  0  0  0
 19 38  1  0  0  0  0
 20 39  1  0  0  0  0
 21 23  1  0  0  0  0
 21 24  1  0  0  0  0
 22 40  1  0  0  0  0
 22 41  1  0  0  0  0
 23 42  1  0  0  0  0
 23 43  1  0  0  0  0
 23 44  1  0  0  0  0
 24 45  1  0  0  0  0
 24 46  1  0  0  0  0
 24 47  1  0  0  0  0
 25 27  1  0  0  0  0
 27 31  2  0  0  0  0
 28 29  1  0  0  0  0
 28 33  1  6  0  0  0
 28 49  1  0  0  0  0
 29 30  1  0  0  0  0
 29 50  1  0  0  0  0
 29 51  1  0  0  0  0
 30 32  1  0  0  0  0
 30 52  1  0  0  0  0
 30 53  1  0  0  0  0
 32 54  1  0  0  0  0
 32 55  1  0  0  0  0
 34 58  1  0  0  0  0
 35 61  1  0  0  0  0
 35 62  1  0  0  0  0
 35 63  1  0  0  0  0
M  END
> <PUBCHEM_COMPOUND_CID>
10097952

> <PUBCHEM_COMPOUND_CANONICALIZED>
1

> <PUBCHEM_CACTVS_COMPLEXITY>
895

> <PUBCHEM_CACTVS_HBOND_ACCEPTOR>
12

> <PUBCHEM_CACTVS_HBOND_DONOR>
4

> <PUBCHEM_CACTVS_ROTATABLE_BOND>
7

> <PUBCHEM_CACTVS_SUBSKEYS>
AAADceB7vAIAAAAAAAAAAAAAAAAAAWLEiQAsAAAAAAASAFgBgAAAHgAQgCAACDzhkgYH+JfIFRCoQAdxdICAgCkREKABUKGoVBCTSBJAyGA/BAgPFwLWACD4MQIAAAAAAAAAAAAAAAAAAAAAAAAAAAAAAA==

> <PUBCHEM_IUPAC_OPENEYE_NAME>
(2S)-N-[[(3aR,4R,6R,6aR)-4-(6-amino-8-oxo-7H-purin-9-yl)-2,2-dimethyl-3a,4,6,6a-tetrahydrofuro[3,4-d][1,3]dioxol-6-yl]methoxy-methoxy-phosphoryl]pyrrolidine-2-carboxamide

> <PUBCHEM_IUPAC_CAS_NAME>
(2S)-N-[[(3aR,4R,6R,6aR)-4-(6-amino-8-oxo-7H-purin-9-yl)-2,2-dimethyl-3a,4,6,6a-tetrahydrofuro[3,4-d][1,3]dioxol-6-yl]methoxy-methoxyphosphoryl]-2-pyrrolidinecarboxamide

> <PUBCHEM_IUPAC_NAME_MARKUP>
(2<I>S</I>)-<I>N</I>-[[(3<I>a</I><I>R</I>,4<I>R</I>,6<I>R</I>,6<I>a</I><I>R</I>)-4-(6-amino-8-oxo-7<I>H</I>-purin-9-yl)-2,2-dimethyl-3<I>a</I>,4,6,6<I>a</I>-tetrahydrofuro[3,4-d][1,3]dioxol-6-yl]methoxy-methoxyphosphoryl]pyrrolidine-2-carboxamide

> <PUBCHEM_IUPAC_NAME>
(2S)-N-[[(3aR,4R,6R,6aR)-4-(6-amino-8-oxo-7H-purin-9-yl)-2,2-dimethyl-3a,4,6,6a-tetrahydrofuro[3,4-d][1,3]dioxol-6-yl]methoxy-methoxyphosphoryl]pyrrolidine-2-carboxamide

> <PUBCHEM_IUPAC_SYSTEMATIC_NAME>
(2S)-N-[[(3aR,4R,6R,6aR)-4-(6-azanyl-8-oxidanylidene-7H-purin-9-yl)-2,2-dimethyl-3a,4,6,6a-tetrahydrofuro[3,4-d][1,3]dioxol-6-yl]methoxy-methoxy-phosphoryl]pyrrolidine-2-carboxamide

> <PUBCHEM_IUPAC_TRADITIONAL_NAME>
(2S)-N-[[(3aR,4R,6R,6aR)-4-(6-amino-8-keto-7H-purin-9-yl)-2,2-dimethyl-3a,4,6,6a-tetrahydrofuro[3,4-d][1,3]dioxol-6-yl]methoxy-methoxy-phosphoryl]pyrrolidine-2-carboxamide

> <PUBCHEM_IUPAC_INCHI>
InChI=1S/C19H28N7O8P/c1-19(2)33-12-10(7-31-35(29,30-3)25-16(27)9-5-4-6-21-9)32-17(13(12)34-19)26-15-11(24-18(26)28)14(20)22-8-23-15/h8-10,12-13,17,21H,4-7H2,1-3H3,(H,24,28)(H2,20,22,23)(H,25,27,29)/t9-,10+,12+,13+,17+,35?/m0/s1

> <PUBCHEM_IUPAC_INCHIKEY>
VWEQLPHGNPWGDV-ULFPCSCKSA-N

> <PUBCHEM_XLOGP3_AA>
-1.9

> <PUBCHEM_EXACT_MASS>
513.17369787

> <PUBCHEM_MOLECULAR_FORMULA>
C19H28N7O8P

> <PUBCHEM_MOLECULAR_WEIGHT>
513.4

> <PUBCHEM_OPENEYE_CAN_SMILES>
CC1(OC2C(OC(C2O1)N3C4=NC=NC(=C4NC3=O)N)COP(=O)(NC(=O)C5CCCN5)OC)C

> <PUBCHEM_OPENEYE_ISO_SMILES>
CC1(O[C@@H]2[C@H](O[C@H]([C@@H]2O1)N3C4=NC=NC(=C4NC3=O)N)COP(=O)(NC(=O)[C@@H]5CCCN5)OC)C

> <PUBCHEM_CACTVS_TPSA>
189

> <PUBCHEM_MONOISOTOPIC_WEIGHT>
513.17369787

> <PUBCHEM_TOTAL_CHARGE>
0

> <PUBCHEM_HEAVY_ATOM_COUNT>
35

> <PUBCHEM_ATOM_DEF_STEREO_COUNT>
5

> <PUBCHEM_ATOM_UDEF_STEREO_COUNT>
1

> <PUBCHEM_BOND_DEF_STEREO_COUNT>
0

> <PUBCHEM_BOND_UDEF_STEREO_COUNT>
0

> <PUBCHEM_ISOTOPIC_ATOM_COUNT>
0

> <PUBCHEM_COMPONENT_COUNT>
1

> <PUBCHEM_CACTVS_TAUTO_COUNT>
-1

> <PUBCHEM_COORDINATE_TYPE>
1
5
255

> <PUBCHEM_BONDANNOTATIONS>
1  13  3
20  10  5
10  25  8
10  26  8
11  26  8
11  27  8
12  25  8
12  34  8
15  31  8
15  34  8
17  36  5
18  37  5
19  22  5
25  27  8
27  31  8
28  33  6

$$$$
