 
  -OEChem-10192103472D

 44 45  0     1  0  0  0  0  0999 V2000
    7.7719    1.3587    0.0000 P   0  0  0  0  0  0  0  0  0  0  0  0
    9.7731   -2.7639    0.0000 P   0  0  0  0  0  0  0  0  0  0  0  0
    8.4790    2.0658    0.0000 O   0  0  0  0  0  0  0  0  0  0  0  0
    8.4790    0.6516    0.0000 O   0  0  0  0  0  0  0  0  0  0  0  0
    7.0648    2.0658    0.0000 O   0  0  0  0  0  0  0  0  0  0  0  0
    5.3741   -0.7176    0.0000 O   0  0  0  0  0  0  0  0  0  0  0  0
    3.0723    3.8903    0.0000 O   0  0  0  0  0  0  0  0  0  0  0  0
   10.0319   -3.7298    0.0000 O   0  0  0  0  0  0  0  0  0  0  0  0
   10.7391   -2.5050    0.0000 O   0  0  0  0  0  0  0  0  0  0  0  0
    8.8072   -3.0227    0.0000 O   0  0  0  0  0  0  0  0  0  0  0  0
    6.0989    0.9104    0.0000 N   0  0  0  0  0  0  0  0  0  0  0  0
    4.0501    1.0757    0.0000 N   0  0  0  0  0  0  0  0  0  0  0  0
    7.0648    0.6516    0.0000 C   0  0  3  0  0  0  0  0  0  0  0  0
    7.3236   -0.3144    0.0000 C   0  0  0  0  0  0  0  0  0  0  0  0
    8.2896   -0.5732    0.0000 C   0  0  0  0  0  0  0  0  0  0  0  0
    4.3089    2.0416    0.0000 C   0  0  0  0  0  0  0  0  0  0  0  0
    2.8290    0.2100    0.0000 C   0  0  0  0  0  0  0  0  0  0  0  0
    2.2756    1.7305    0.0000 C   0  0  0  0  0  0  0  0  0  0  0  0
    2.0000    0.7692    0.0000 C   0  0  0  0  0  0  0  0  0  0  0  0
    5.3217    0.2811    0.0000 C   0  0  0  0  0  0  0  0  0  0  0  0
    5.7405    1.8440    0.0000 C   0  0  0  0  0  0  0  0  0  0  0  0
    8.5484   -1.5391    0.0000 C   0  0  0  0  0  0  0  0  0  0  0  0
    3.5723    3.0242    0.0000 C   0  0  0  0  0  0  0  0  0  0  0  0
    9.5143   -1.7979    0.0000 C   0  0  0  0  0  0  0  0  0  0  0  0
    6.6264    0.2131    0.0000 H   0  0  0  0  0  0  0  0  0  0  0  0
    6.7060   -0.3684    0.0000 H   0  0  0  0  0  0  0  0  0  0  0  0
    7.2696   -0.9320    0.0000 H   0  0  0  0  0  0  0  0  0  0  0  0
    8.9072   -0.5192    0.0000 H   0  0  0  0  0  0  0  0  0  0  0  0
    8.3436    0.0444    0.0000 H   0  0  0  0  0  0  0  0  0  0  0  0
    2.4232   -0.2587    0.0000 H   0  0  0  0  0  0  0  0  0  0  0  0
    3.2457   -0.2491    0.0000 H   0  0  0  0  0  0  0  0  0  0  0  0
    2.2706    2.3505    0.0000 H   0  0  0  0  0  0  0  0  0  0  0  0
    1.6613    1.8143    0.0000 H   0  0  0  0  0  0  0  0  0  0  0  0
    1.4252    1.0015    0.0000 H   0  0  0  0  0  0  0  0  0  0  0  0
    1.7089    0.2218    0.0000 H   0  0  0  0  0  0  0  0  0  0  0  0
    6.1259    2.3296    0.0000 H   0  0  0  0  0  0  0  0  0  0  0  0
    7.9307   -1.5932    0.0000 H   0  0  0  0  0  0  0  0  0  0  0  0
    8.4943   -2.1568    0.0000 H   0  0  0  0  0  0  0  0  0  0  0  0
   10.1319   -1.7439    0.0000 H   0  0  0  0  0  0  0  0  0  0  0  0
    9.5683   -1.1803    0.0000 H   0  0  0  0  0  0  0  0  0  0  0  0
    9.0779    1.9053    0.0000 H   0  0  0  0  0  0  0  0  0  0  0  0
    9.0779    0.8120    0.0000 H   0  0  0  0  0  0  0  0  0  0  0  0
   10.6308   -3.8903    0.0000 H   0  0  0  0  0  0  0  0  0  0  0  0
   10.8995   -1.9062    0.0000 H   0  0  0  0  0  0  0  0  0  0  0  0
  1  3  1  0  0  0  0
  1  4  1  0  0  0  0
  1  5  2  0  0  0  0
  1 13  1  0  0  0  0
  2  8  1  0  0  0  0
  2  9  1  0  0  0  0
  2 10  2  0  0  0  0
  2 24  1  0  0  0  0
  3 41  1  0  0  0  0
  4 42  1  0  0  0  0
  6 20  2  0  0  0  0
  7 23  2  0  0  0  0
  8 43  1  0  0  0  0
  9 44  1  0  0  0  0
 11 13  1  0  0  0  0
 11 20  1  0  0  0  0
 11 21  1  0  0  0  0
 12 17  1  0  0  0  0
 12 20  1  0  0  0  0
 12 23  1  0  0  0  0
 13 14  1  0  0  0  0
 13 25  1  0  0  0  0
 14 15  1  0  0  0  0
 14 26  1  0  0  0  0
 14 27  1  0  0  0  0
 15 22  1  0  0  0  0
 15 28  1  0  0  0  0
 15 29  1  0  0  0  0
 16 18  1  0  0  0  0
 16 21  2  0  0  0  0
 16 23  1  0  0  0  0
 17 19  1  0  0  0  0
 17 30  1  0  0  0  0
 17 31  1  0  0  0  0
 18 19  1  0  0  0  0
 18 32  1  0  0  0  0
 18 33  1  0  0  0  0
 19 34  1  0  0  0  0
 19 35  1  0  0  0  0
 21 36  1  0  0  0  0
 22 24  1  0  0  0  0
 22 37  1  0  0  0  0
 22 38  1  0  0  0  0
 24 39  1  0  0  0  0
 24 40  1  0  0  0  0
M  END
> <PUBCHEM_COMPOUND_CID>
87253044

> <PUBCHEM_COMPOUND_CANONICALIZED>
1

> <PUBCHEM_CACTVS_COMPLEXITY>
651

> <PUBCHEM_CACTVS_HBOND_ACCEPTOR>
8

> <PUBCHEM_CACTVS_HBOND_DONOR>
4

> <PUBCHEM_CACTVS_ROTATABLE_BOND>
7

> <PUBCHEM_CACTVS_SUBSKEYS>
AAADceBzPAMAAAAAAAAAAAAAAAAAAAAAAAAsQAAAAAAQAAAAAAAAHggACCAADADJgAQBAAMAABCIQgFWUICAAAAgAAAAAAEIAEiAABIAgQAEAAAIhyKAAMAYAQAAAAAAAAAAAAAAAAAAAAAAAAAAAAAAAA==

> <PUBCHEM_IUPAC_OPENEYE_NAME>
[1-(2,9-dioxo-1,3-diazabicyclo[3.3.1]non-4-en-3-yl)-5-phosphono-pentyl]phosphonic acid

> <PUBCHEM_IUPAC_CAS_NAME>
[1-(2,9-dioxo-1,3-diazabicyclo[3.3.1]non-4-en-3-yl)-5-phosphonopentyl]phosphonic acid

> <PUBCHEM_IUPAC_NAME_MARKUP>
[1-(2,9-dioxo-1,3-diazabicyclo[3.3.1]non-4-en-3-yl)-5-phosphonopentyl]phosphonic acid

> <PUBCHEM_IUPAC_NAME>
[1-(2,9-dioxo-1,3-diazabicyclo[3.3.1]non-4-en-3-yl)-5-phosphonopentyl]phosphonic acid

> <PUBCHEM_IUPAC_SYSTEMATIC_NAME>
[1-[2,9-bis(oxidanylidene)-1,3-diazabicyclo[3.3.1]non-4-en-3-yl]-5-phosphono-pentyl]phosphonic acid

> <PUBCHEM_IUPAC_TRADITIONAL_NAME>
[1-(2,9-diketo-1,3-diazabicyclo[3.3.1]non-4-en-3-yl)-5-phosphono-pentyl]phosphonic acid

> <PUBCHEM_IUPAC_INCHI>
InChI=1S/C12H20N2O8P2/c15-11-9-4-3-6-13(11)12(16)14(8-9)10(24(20,21)22)5-1-2-7-23(17,18)19/h8,10H,1-7H2,(H2,17,18,19)(H2,20,21,22)

> <PUBCHEM_IUPAC_INCHIKEY>
SLZLHZDIDZRMOG-UHFFFAOYSA-N

> <PUBCHEM_XLOGP3_AA>
-2.6

> <PUBCHEM_EXACT_MASS>
382.06948960

> <PUBCHEM_MOLECULAR_FORMULA>
C12H20N2O8P2

> <PUBCHEM_MOLECULAR_WEIGHT>
382.24

> <PUBCHEM_OPENEYE_CAN_SMILES>
C1CC2=CN(C(=O)N(C1)C2=O)C(CCCCP(=O)(O)O)P(=O)(O)O

> <PUBCHEM_OPENEYE_ISO_SMILES>
C1CC2=CN(C(=O)N(C1)C2=O)C(CCCCP(=O)(O)O)P(=O)(O)O

> <PUBCHEM_CACTVS_TPSA>
156

> <PUBCHEM_MONOISOTOPIC_WEIGHT>
382.06948960

> <PUBCHEM_TOTAL_CHARGE>
0

> <PUBCHEM_HEAVY_ATOM_COUNT>
24

> <PUBCHEM_ATOM_DEF_STEREO_COUNT>
0

> <PUBCHEM_ATOM_UDEF_STEREO_COUNT>
1

> <PUBCHEM_BOND_DEF_STEREO_COUNT>
0

> <PUBCHEM_BOND_UDEF_STEREO_COUNT>
0

> <PUBCHEM_ISOTOPIC_ATOM_COUNT>
0

> <PUBCHEM_COMPONENT_COUNT>
1

> <PUBCHEM_CACTVS_TAUTO_COUNT>
-1

> <PUBCHEM_COORDINATE_TYPE>
1
5
255

> <PUBCHEM_BONDANNOTATIONS>
11  20  8
11  21  8
12  20  8
12  23  8
13  14  3
16  21  8
16  23  8

$$$$
