 
  -OEChem-10192104412D

 49 50  0     0  0  0  0  0  0999 V2000
    6.3301    3.9050    0.0000 O   0  0  0  0  0  0  0  0  0  0  0  0
    2.0000   -3.5950    0.0000 O   0  0  0  0  0  0  0  0  0  0  0  0
    7.1962    2.4050    0.0000 O   0  0  0  0  0  0  0  0  0  0  0  0
    3.7320   -3.5950    0.0000 O   0  0  0  0  0  0  0  0  0  0  0  0
    2.8660    0.9050    0.0000 C   0  0  0  0  0  0  0  0  0  0  0  0
    3.7320    1.4050    0.0000 C   0  0  0  0  0  0  0  0  0  0  0  0
    2.8660   -0.0950    0.0000 C   0  0  0  0  0  0  0  0  0  0  0  0
    3.7320    2.4050    0.0000 C   0  0  0  0  0  0  0  0  0  0  0  0
    4.5981    0.9050    0.0000 C   0  0  0  0  0  0  0  0  0  0  0  0
    2.0000   -0.5950    0.0000 C   0  0  0  0  0  0  0  0  0  0  0  0
    3.7320   -0.5950    0.0000 C   0  0  0  0  0  0  0  0  0  0  0  0
    2.0000    1.4050    0.0000 C   0  0  0  0  0  0  0  0  0  0  0  0
    4.5981    2.9050    0.0000 C   0  0  0  0  0  0  0  0  0  0  0  0
    5.4641    1.4050    0.0000 C   0  0  0  0  0  0  0  0  0  0  0  0
    2.0000   -1.5950    0.0000 C   0  0  0  0  0  0  0  0  0  0  0  0
    3.7320   -1.5950    0.0000 C   0  0  0  0  0  0  0  0  0  0  0  0
    5.4641    2.4050    0.0000 C   0  0  0  0  0  0  0  0  0  0  0  0
    2.8660   -2.0950    0.0000 C   0  0  0  0  0  0  0  0  0  0  0  0
    2.0000    2.4050    0.0000 C   0  0  0  0  0  0  0  0  0  0  0  0
    6.3301    2.9050    0.0000 C   0  0  0  0  0  0  0  0  0  0  0  0
    2.8660   -3.0950    0.0000 C   0  0  0  0  0  0  0  0  0  0  0  0
    2.8660    1.5250    0.0000 H   0  0  0  0  0  0  0  0  0  0  0  0
    3.7320    0.7850    0.0000 H   0  0  0  0  0  0  0  0  0  0  0  0
    3.4030    0.2150    0.0000 H   0  0  0  0  0  0  0  0  0  0  0  0
    3.5200    2.9876    0.0000 H   0  0  0  0  0  0  0  0  0  0  0  0
    3.1215    2.2973    0.0000 H   0  0  0  0  0  0  0  0  0  0  0  0
    4.1996    0.4301    0.0000 H   0  0  0  0  0  0  0  0  0  0  0  0
    4.9966    0.4301    0.0000 H   0  0  0  0  0  0  0  0  0  0  0  0
    1.7880   -0.0124    0.0000 H   0  0  0  0  0  0  0  0  0  0  0  0
    1.3894   -0.7027    0.0000 H   0  0  0  0  0  0  0  0  0  0  0  0
    4.3426   -0.7027    0.0000 H   0  0  0  0  0  0  0  0  0  0  0  0
    3.9441   -0.0124    0.0000 H   0  0  0  0  0  0  0  0  0  0  0  0
    1.3894    1.5127    0.0000 H   0  0  0  0  0  0  0  0  0  0  0  0
    1.7880    0.8224    0.0000 H   0  0  0  0  0  0  0  0  0  0  0  0
    4.9966    3.3800    0.0000 H   0  0  0  0  0  0  0  0  0  0  0  0
    4.1996    3.3800    0.0000 H   0  0  0  0  0  0  0  0  0  0  0  0
    5.6762    0.8224    0.0000 H   0  0  0  0  0  0  0  0  0  0  0  0
    6.0747    1.5127    0.0000 H   0  0  0  0  0  0  0  0  0  0  0  0
    1.3894   -1.4873    0.0000 H   0  0  0  0  0  0  0  0  0  0  0  0
    1.7880   -2.1776    0.0000 H   0  0  0  0  0  0  0  0  0  0  0  0
    3.9441   -2.1776    0.0000 H   0  0  0  0  0  0  0  0  0  0  0  0
    4.3426   -1.4873    0.0000 H   0  0  0  0  0  0  0  0  0  0  0  0
    5.4641    3.0250    0.0000 H   0  0  0  0  0  0  0  0  0  0  0  0
    3.4030   -2.4050    0.0000 H   0  0  0  0  0  0  0  0  0  0  0  0
    2.6200    2.4050    0.0000 H   0  0  0  0  0  0  0  0  0  0  0  0
    2.0000    3.0250    0.0000 H   0  0  0  0  0  0  0  0  0  0  0  0
    1.3800    2.4050    0.0000 H   0  0  0  0  0  0  0  0  0  0  0  0
    6.8671    4.2150    0.0000 H   0  0  0  0  0  0  0  0  0  0  0  0
    2.0000   -4.2150    0.0000 H   0  0  0  0  0  0  0  0  0  0  0  0
  1 20  1  0  0  0  0
  1 48  1  0  0  0  0
  2 21  1  0  0  0  0
  2 49  1  0  0  0  0
  3 20  2  0  0  0  0
  4 21  2  0  0  0  0
  5  6  1  0  0  0  0
  5  7  1  0  0  0  0
  5 12  1  0  0  0  0
  5 22  1  0  0  0  0
  6  8  1  0  0  0  0
  6  9  1  0  0  0  0
  6 23  1  0  0  0  0
  7 10  1  0  0  0  0
  7 11  1  0  0  0  0
  7 24  1  0  0  0  0
  8 13  1  0  0  0  0
  8 25  1  0  0  0  0
  8 26  1  0  0  0  0
  9 14  1  0  0  0  0
  9 27  1  0  0  0  0
  9 28  1  0  0  0  0
 10 15  1  0  0  0  0
 10 29  1  0  0  0  0
 10 30  1  0  0  0  0
 11 16  1  0  0  0  0
 11 31  1  0  0  0  0
 11 32  1  0  0  0  0
 12 19  1  0  0  0  0
 12 33  1  0  0  0  0
 12 34  1  0  0  0  0
 13 17  1  0  0  0  0
 13 35  1  0  0  0  0
 13 36  1  0  0  0  0
 14 17  1  0  0  0  0
 14 37  1  0  0  0  0
 14 38  1  0  0  0  0
 15 18  1  0  0  0  0
 15 39  1  0  0  0  0
 15 40  1  0  0  0  0
 16 18  1  0  0  0  0
 16 41  1  0  0  0  0
 16 42  1  0  0  0  0
 17 20  1  0  0  0  0
 17 43  1  0  0  0  0
 18 21  1  0  0  0  0
 18 44  1  0  0  0  0
 19 45  1  0  0  0  0
 19 46  1  0  0  0  0
 19 47  1  0  0  0  0
M  END
> <PUBCHEM_COMPOUND_CID>
21885414

> <PUBCHEM_COMPOUND_CANONICALIZED>
1

> <PUBCHEM_CACTVS_COMPLEXITY>
329

> <PUBCHEM_CACTVS_HBOND_ACCEPTOR>
4

> <PUBCHEM_CACTVS_HBOND_DONOR>
2

> <PUBCHEM_CACTVS_ROTATABLE_BOND>
5

> <PUBCHEM_CACTVS_SUBSKEYS>
AAADceB4OAAAAAAAAAAAAAAAAAAAAAAAAAAwYAAAAAAAAAAAAAAAGgAACAAADQCAgAACCAAAAgAIAACQCAAAAAAAAAAAAAEAAAAAABIAAAAAQAAEAAAAAAGIyPCOgAAAAAAAAACAAAAAAAAAAAAAAAAAAA==

> <PUBCHEM_IUPAC_OPENEYE_NAME>
4-[1-(4-carboxycyclohexyl)propyl]cyclohexanecarboxylic acid

> <PUBCHEM_IUPAC_CAS_NAME>
4-[1-(4-carboxycyclohexyl)propyl]-1-cyclohexanecarboxylic acid

> <PUBCHEM_IUPAC_NAME_MARKUP>
4-[1-(4-carboxycyclohexyl)propyl]cyclohexane-1-carboxylic acid

> <PUBCHEM_IUPAC_NAME>
4-[1-(4-carboxycyclohexyl)propyl]cyclohexane-1-carboxylic acid

> <PUBCHEM_IUPAC_SYSTEMATIC_NAME>
4-[1-(4-carboxycyclohexyl)propyl]cyclohexane-1-carboxylic acid

> <PUBCHEM_IUPAC_TRADITIONAL_NAME>
4-[1-(4-carboxycyclohexyl)propyl]cyclohexanecarboxylic acid

> <PUBCHEM_IUPAC_INCHI>
InChI=1S/C17H28O4/c1-2-15(11-3-7-13(8-4-11)16(18)19)12-5-9-14(10-6-12)17(20)21/h11-15H,2-10H2,1H3,(H,18,19)(H,20,21)

> <PUBCHEM_IUPAC_INCHIKEY>
OHWBFJAKVFHBMU-UHFFFAOYSA-N

> <PUBCHEM_XLOGP3_AA>
4.3

> <PUBCHEM_EXACT_MASS>
296.19875937

> <PUBCHEM_MOLECULAR_FORMULA>
C17H28O4

> <PUBCHEM_MOLECULAR_WEIGHT>
296.4

> <PUBCHEM_OPENEYE_CAN_SMILES>
CCC(C1CCC(CC1)C(=O)O)C2CCC(CC2)C(=O)O

> <PUBCHEM_OPENEYE_ISO_SMILES>
CCC(C1CCC(CC1)C(=O)O)C2CCC(CC2)C(=O)O

> <PUBCHEM_CACTVS_TPSA>
74.6

> <PUBCHEM_MONOISOTOPIC_WEIGHT>
296.19875937

> <PUBCHEM_TOTAL_CHARGE>
0

> <PUBCHEM_HEAVY_ATOM_COUNT>
21

> <PUBCHEM_ATOM_DEF_STEREO_COUNT>
0

> <PUBCHEM_ATOM_UDEF_STEREO_COUNT>
0

> <PUBCHEM_BOND_DEF_STEREO_COUNT>
0

> <PUBCHEM_BOND_UDEF_STEREO_COUNT>
0

> <PUBCHEM_ISOTOPIC_ATOM_COUNT>
0

> <PUBCHEM_COMPONENT_COUNT>
1

> <PUBCHEM_CACTVS_TAUTO_COUNT>
-1

> <PUBCHEM_COORDINATE_TYPE>
1
5
255

$$$$
