 
  -OEChem-10192104162D

 71 74  0     1  0  0  0  0  0999 V2000
    7.7331    2.1176    0.0000 O   0  0  0  0  0  0  0  0  0  0  0  0
    6.8671    0.6176    0.0000 O   0  0  0  0  0  0  0  0  0  0  0  0
    6.0010    2.1176    0.0000 O   0  0  0  0  0  0  0  0  0  0  0  0
    6.0010   -1.8824    0.0000 O   0  0  0  0  0  0  0  0  0  0  0  0
    4.2690   -1.8824    0.0000 O   0  0  0  0  0  0  0  0  0  0  0  0
    9.4651    1.1176    0.0000 O   0  0  0  0  0  0  0  0  0  0  0  0
    7.7331   -1.8824    0.0000 O   0  0  0  0  0  0  0  0  0  0  0  0
    9.4651   -0.8824    0.0000 O   0  0  0  0  0  0  0  0  0  0  0  0
    9.2504    4.8227    0.0000 O   0  0  0  0  0  0  0  0  0  0  0  0
    6.0010   -3.8824    0.0000 O   0  0  0  0  0  0  0  0  0  0  0  0
    4.2690   -4.8824    0.0000 O   0  0  0  0  0  0  0  0  0  0  0  0
    2.5369   -3.8824    0.0000 O   0  0  0  0  0  0  0  0  0  0  0  0
    3.4030    3.6176    0.0000 O   0  0  0  0  0  0  0  0  0  0  0  0
    4.2690    5.1176    0.0000 O   0  0  0  0  0  0  0  0  0  0  0  0
    6.8671    3.6176    0.0000 C   0  0  2  0  0  0  0  0  0  0  0  0
    6.0010    4.1176    0.0000 C   0  0  2  0  0  0  0  0  0  0  0  0
    6.8671    2.6176    0.0000 C   0  0  2  0  0  0  0  0  0  0  0  0
    6.2102    5.0894    0.0000 C   0  0  0  0  0  0  0  0  0  0  0  0
    7.6041    4.2846    0.0000 C   0  0  0  0  0  0  0  0  0  0  0  0
    7.7331    1.1176    0.0000 C   0  0  2  0  0  0  0  0  0  0  0  0
    6.8671   -0.3824    0.0000 C   0  0  1  0  0  0  0  0  0  0  0  0
    8.5991    0.6176    0.0000 C   0  0  1  0  0  0  0  0  0  0  0  0
    7.7331   -0.8824    0.0000 C   0  0  2  0  0  0  0  0  0  0  0  0
    8.5991   -0.3824    0.0000 C   0  0  2  0  0  0  0  0  0  0  0  0
    7.1990    5.1924    0.0000 C   0  0  0  0  0  0  0  0  0  0  0  0
    5.1350    3.6176    0.0000 C   0  0  0  0  0  0  0  0  0  0  0  0
    6.0010   -0.8824    0.0000 C   0  0  0  0  0  0  0  0  0  0  0  0
    8.5826    4.0784    0.0000 C   0  0  0  0  0  0  0  0  0  0  0  0
    5.1350    2.6176    0.0000 C   0  0  0  0  0  0  0  0  0  0  0  0
    5.1350   -2.3824    0.0000 C   0  0  2  0  0  0  0  0  0  0  0  0
    5.1350   -3.3824    0.0000 C   0  0  1  0  0  0  0  0  0  0  0  0
    4.2690   -3.8824    0.0000 C   0  0  1  0  0  0  0  0  0  0  0  0
    3.4030   -3.3824    0.0000 C   0  0  2  0  0  0  0  0  0  0  0  0
    3.4030   -2.3824    0.0000 C   0  0  2  0  0  0  0  0  0  0  0  0
    4.2690    4.1176    0.0000 C   0  0  0  0  0  0  0  0  0  0  0  0
    2.5369   -1.8824    0.0000 C   0  0  0  0  0  0  0  0  0  0  0  0
    2.5369    4.1176    0.0000 C   0  0  0  0  0  0  0  0  0  0  0  0
    7.6440    3.2728    0.0000 H   0  0  0  0  0  0  0  0  0  0  0  0
    5.3140    4.6181    0.0000 H   0  0  0  0  0  0  0  0  0  0  0  0
    7.4040    2.9276    0.0000 H   0  0  0  0  0  0  0  0  0  0  0  0
    6.2111    5.7094    0.0000 H   0  0  0  0  0  0  0  0  0  0  0  0
    5.5938    5.1554    0.0000 H   0  0  0  0  0  0  0  0  0  0  0  0
    7.1962    1.4276    0.0000 H   0  0  0  0  0  0  0  0  0  0  0  0
    6.3301   -0.0724    0.0000 H   0  0  0  0  0  0  0  0  0  0  0  0
    8.5991    1.2376    0.0000 H   0  0  0  0  0  0  0  0  0  0  0  0
    8.2700   -1.1924    0.0000 H   0  0  0  0  0  0  0  0  0  0  0  0
    9.1360   -0.0724    0.0000 H   0  0  0  0  0  0  0  0  0  0  0  0
    7.5090    5.7294    0.0000 H   0  0  0  0  0  0  0  0  0  0  0  0
    5.7890   -0.2998    0.0000 H   0  0  0  0  0  0  0  0  0  0  0  0
    5.3905   -0.9901    0.0000 H   0  0  0  0  0  0  0  0  0  0  0  0
    8.3513    3.5032    0.0000 H   0  0  0  0  0  0  0  0  0  0  0  0
    9.1089    3.7508    0.0000 H   0  0  0  0  0  0  0  0  0  0  0  0
    4.5981    2.3076    0.0000 H   0  0  0  0  0  0  0  0  0  0  0  0
    5.1350   -1.7624    0.0000 H   0  0  0  0  0  0  0  0  0  0  0  0
    5.1350   -4.0024    0.0000 H   0  0  0  0  0  0  0  0  0  0  0  0
    3.7320   -4.1924    0.0000 H   0  0  0  0  0  0  0  0  0  0  0  0
    3.4030   -4.0024    0.0000 H   0  0  0  0  0  0  0  0  0  0  0  0
    3.4030   -1.7624    0.0000 H   0  0  0  0  0  0  0  0  0  0  0  0
    9.4651    1.7376    0.0000 H   0  0  0  0  0  0  0  0  0  0  0  0
    8.2700   -2.1924    0.0000 H   0  0  0  0  0  0  0  0  0  0  0  0
   10.0021   -0.5724    0.0000 H   0  0  0  0  0  0  0  0  0  0  0  0
    2.8469   -1.3455    0.0000 H   0  0  0  0  0  0  0  0  0  0  0  0
    2.0000   -1.5724    0.0000 H   0  0  0  0  0  0  0  0  0  0  0  0
    2.2269   -2.4194    0.0000 H   0  0  0  0  0  0  0  0  0  0  0  0
    9.8571    4.6949    0.0000 H   0  0  0  0  0  0  0  0  0  0  0  0
    6.5380   -3.5724    0.0000 H   0  0  0  0  0  0  0  0  0  0  0  0
    3.7320   -5.1924    0.0000 H   0  0  0  0  0  0  0  0  0  0  0  0
    2.0000   -3.5724    0.0000 H   0  0  0  0  0  0  0  0  0  0  0  0
    2.8469    4.6545    0.0000 H   0  0  0  0  0  0  0  0  0  0  0  0
    2.0000    4.4276    0.0000 H   0  0  0  0  0  0  0  0  0  0  0  0
    2.2269    3.5806    0.0000 H   0  0  0  0  0  0  0  0  0  0  0  0
 17  1  1  6  0  0  0
 20  1  1  1  0  0  0
  2 20  1  0  0  0  0
  2 21  1  0  0  0  0
  3 17  1  0  0  0  0
  3 29  1  0  0  0  0
  4 27  1  0  0  0  0
 30  4  1  1  0  0  0
  5 30  1  0  0  0  0
  5 34  1  0  0  0  0
 22  6  1  6  0  0  0
  6 59  1  0  0  0  0
 23  7  1  6  0  0  0
  7 60  1  0  0  0  0
 24  8  1  1  0  0  0
  8 61  1  0  0  0  0
  9 28  1  0  0  0  0
  9 65  1  0  0  0  0
 31 10  1  6  0  0  0
 10 66  1  0  0  0  0
 32 11  1  6  0  0  0
 11 67  1  0  0  0  0
 33 12  1  1  0  0  0
 12 68  1  0  0  0  0
 13 35  1  0  0  0  0
 13 37  1  0  0  0  0
 14 35  2  0  0  0  0
 15 16  1  0  0  0  0
 15 17  1  0  0  0  0
 15 19  1  0  0  0  0
 15 38  1  6  0  0  0
 16 18  1  0  0  0  0
 16 26  1  0  0  0  0
 16 39  1  6  0  0  0
 17 40  1  0  0  0  0
 18 25  1  0  0  0  0
 18 41  1  0  0  0  0
 18 42  1  0  0  0  0
 19 25  2  0  0  0  0
 19 28  1  0  0  0  0
 20 22  1  0  0  0  0
 20 43  1  0  0  0  0
 21 23  1  0  0  0  0
 21 27  1  1  0  0  0
 21 44  1  0  0  0  0
 22 24  1  0  0  0  0
 22 45  1  0  0  0  0
 23 24  1  0  0  0  0
 23 46  1  0  0  0  0
 24 47  1  0  0  0  0
 25 48  1  0  0  0  0
 26 29  2  0  0  0  0
 26 35  1  0  0  0  0
 27 49  1  0  0  0  0
 27 50  1  0  0  0  0
 28 51  1  0  0  0  0
 28 52  1  0  0  0  0
 29 53  1  0  0  0  0
 30 31  1  0  0  0  0
 30 54  1  0  0  0  0
 31 32  1  0  0  0  0
 31 55  1  0  0  0  0
 32 33  1  0  0  0  0
 32 56  1  0  0  0  0
 33 34  1  0  0  0  0
 33 57  1  0  0  0  0
 34 36  1  6  0  0  0
 34 58  1  0  0  0  0
 36 62  1  0  0  0  0
 36 63  1  0  0  0  0
 36 64  1  0  0  0  0
 37 69  1  0  0  0  0
 37 70  1  0  0  0  0
 37 71  1  0  0  0  0
M  END
> <PUBCHEM_COMPOUND_CID>
24878902

> <PUBCHEM_COMPOUND_CANONICALIZED>
1

> <PUBCHEM_CACTVS_COMPLEXITY>
878

> <PUBCHEM_CACTVS_HBOND_ACCEPTOR>
14

> <PUBCHEM_CACTVS_HBOND_DONOR>
7

> <PUBCHEM_CACTVS_ROTATABLE_BOND>
8

> <PUBCHEM_CACTVS_SUBSKEYS>
AAADcfB4PAAAAAAAAAAAAAAAAAAAAQAAAAAkSIAAAAAAAEAAAAAAGgAACAAADRSwgAMCCAAABgCIAiDSCAAACAAgIAAACAEAAEgRFBIAIQAiUAAFwAAPMIPIbAwOgAAAAAAAAAAAAAAAAAAAAAAAAAAAAA==

> <PUBCHEM_IUPAC_OPENEYE_NAME>
methyl (1S,4aS,7aS)-7-(hydroxymethyl)-1-[(2S,3R,4S,5S,6R)-3,4,5-trihydroxy-6-[[(2R,3R,4R,5R,6S)-3,4,5-trihydroxy-6-methyl-tetrahydropyran-2-yl]oxymethyl]tetrahydropyran-2-yl]oxy-1,4a,5,7a-tetrahydrocyclopenta[c]pyran-4-carboxylate

> <PUBCHEM_IUPAC_CAS_NAME>
(1S,4aS,7aS)-7-(hydroxymethyl)-1-[[(2S,3R,4S,5S,6R)-3,4,5-trihydroxy-6-[[(2R,3R,4R,5R,6S)-3,4,5-trihydroxy-6-methyl-2-oxanyl]oxymethyl]-2-oxanyl]oxy]-1,4a,5,7a-tetrahydrocyclopenta[c]pyran-4-carboxylic acid methyl ester

> <PUBCHEM_IUPAC_NAME_MARKUP>
methyl (1<I>S</I>,4<I>a</I><I>S</I>,7<I>a</I><I>S</I>)-7-(hydroxymethyl)-1-[(2<I>S</I>,3<I>R</I>,4<I>S</I>,5<I>S</I>,6<I>R</I>)-3,4,5-trihydroxy-6-[[(2<I>R</I>,3<I>R</I>,4<I>R</I>,5<I>R</I>,6<I>S</I>)-3,4,5-trihydroxy-6-methyloxan-2-yl]oxymethyl]oxan-2-yl]oxy-1,4<I>a</I>,5,7<I>a</I>-tetrahydrocyclopenta[c]pyran-4-carboxylate

> <PUBCHEM_IUPAC_NAME>
methyl (1S,4aS,7aS)-7-(hydroxymethyl)-1-[(2S,3R,4S,5S,6R)-3,4,5-trihydroxy-6-[[(2R,3R,4R,5R,6S)-3,4,5-trihydroxy-6-methyloxan-2-yl]oxymethyl]oxan-2-yl]oxy-1,4a,5,7a-tetrahydrocyclopenta[c]pyran-4-carboxylate

> <PUBCHEM_IUPAC_SYSTEMATIC_NAME>
methyl (1S,4aS,7aS)-7-(hydroxymethyl)-1-[(2S,3R,4S,5S,6R)-6-[[(2R,3R,4R,5R,6S)-6-methyl-3,4,5-tris(oxidanyl)oxan-2-yl]oxymethyl]-3,4,5-tris(oxidanyl)oxan-2-yl]oxy-1,4a,5,7a-tetrahydrocyclopenta[c]pyran-4-carboxylate

> <PUBCHEM_IUPAC_TRADITIONAL_NAME>
(1S,4aS,7aS)-7-methylol-1-[(2S,3R,4S,5S,6R)-3,4,5-trihydroxy-6-[[(2R,3R,4R,5R,6S)-3,4,5-trihydroxy-6-methyl-tetrahydropyran-2-yl]oxymethyl]tetrahydropyran-2-yl]oxy-1,4a,5,7a-tetrahydrocyclopenta[c]pyran-4-carboxylic acid methyl ester

> <PUBCHEM_IUPAC_INCHI>
InChI=1S/C23H34O14/c1-8-14(25)16(27)18(29)22(35-8)34-7-12-15(26)17(28)19(30)23(36-12)37-21-13-9(5-24)3-4-10(13)11(6-33-21)20(31)32-2/h3,6,8,10,12-19,21-30H,4-5,7H2,1-2H3/t8-,10+,12+,13+,14-,15+,16+,17-,18+,19+,21-,22+,23-/m0/s1

> <PUBCHEM_IUPAC_INCHIKEY>
ZMBIVWMXUPESGV-JXGQDRBRSA-N

> <PUBCHEM_XLOGP3_AA>
-4

> <PUBCHEM_EXACT_MASS>
534.19485575

> <PUBCHEM_MOLECULAR_FORMULA>
C23H34O14

> <PUBCHEM_MOLECULAR_WEIGHT>
534.5

> <PUBCHEM_OPENEYE_CAN_SMILES>
CC1C(C(C(C(O1)OCC2C(C(C(C(O2)OC3C4C(CC=C4CO)C(=CO3)C(=O)OC)O)O)O)O)O)O

> <PUBCHEM_OPENEYE_ISO_SMILES>
C[C@H]1[C@@H]([C@H]([C@H]([C@@H](O1)OC[C@@H]2[C@H]([C@@H]([C@H]([C@@H](O2)O[C@H]3[C@H]4[C@H](CC=C4CO)C(=CO3)C(=O)OC)O)O)O)O)O)O

> <PUBCHEM_CACTVS_TPSA>
214

> <PUBCHEM_MONOISOTOPIC_WEIGHT>
534.19485575

> <PUBCHEM_TOTAL_CHARGE>
0

> <PUBCHEM_HEAVY_ATOM_COUNT>
37

> <PUBCHEM_ATOM_DEF_STEREO_COUNT>
13

> <PUBCHEM_ATOM_UDEF_STEREO_COUNT>
0

> <PUBCHEM_BOND_DEF_STEREO_COUNT>
0

> <PUBCHEM_BOND_UDEF_STEREO_COUNT>
0

> <PUBCHEM_ISOTOPIC_ATOM_COUNT>
0

> <PUBCHEM_COMPONENT_COUNT>
1

> <PUBCHEM_CACTVS_TAUTO_COUNT>
-1

> <PUBCHEM_COORDINATE_TYPE>
1
5
255

> <PUBCHEM_BONDANNOTATIONS>
17  1  6
20  1  5
31  10  6
32  11  6
33  12  5
15  38  6
16  39  6
21  27  5
34  36  6
30  4  5
22  6  6
23  7  6
24  8  5

$$$$
