 
  -OEChem-10192104002D

 77 79  0     1  0  0  0  0  0999 V2000
   13.7953    3.2500    0.0000 P   0  0  0  0  0  0  0  0  0  0  0  0
    6.0010   -3.2500    0.0000 O   0  0  0  0  0  0  0  0  0  0  0  0
    7.7331   -1.2500    0.0000 O   0  0  0  0  0  0  0  0  0  0  0  0
   11.1972    1.7500    0.0000 O   0  0  0  0  0  0  0  0  0  0  0  0
    5.1350   -1.7500    0.0000 O   0  0  0  0  0  0  0  0  0  0  0  0
    9.4651   -1.2500    0.0000 O   0  0  0  0  0  0  0  0  0  0  0  0
    7.7331   -4.2500    0.0000 O   0  0  0  0  0  0  0  0  0  0  0  0
    9.4651   -3.2500    0.0000 O   0  0  0  0  0  0  0  0  0  0  0  0
    8.5991    1.2500    0.0000 O   0  0  0  0  0  0  0  0  0  0  0  0
    8.5991    3.2500    0.0000 O   0  0  0  0  0  0  0  0  0  0  0  0
    4.2690   -4.2500    0.0000 O   0  0  0  0  0  0  0  0  0  0  0  0
   10.3312    4.2500    0.0000 O   0  0  0  0  0  0  0  0  0  0  0  0
    2.5369   -3.2500    0.0000 O   0  0  0  0  0  0  0  0  0  0  0  0
    2.5369   -1.2500    0.0000 O   0  0  0  0  0  0  0  0  0  0  0  0
    6.0010   -0.2500    0.0000 O   0  0  0  0  0  0  0  0  0  0  0  0
   12.9292    2.7500    0.0000 O   0  0  0  0  0  0  0  0  0  0  0  0
    5.1350    0.2500    0.0000 O   0  0  0  0  0  0  0  0  0  0  0  0
   14.6613    3.7500    0.0000 O   0  0  0  0  0  0  0  0  0  0  0  0
   14.2953    2.3840    0.0000 O   0  0  0  0  0  0  0  0  0  0  0  0
   13.2953    4.1160    0.0000 O   0  0  0  0  0  0  0  0  0  0  0  0
    6.8671   -2.7500    0.0000 C   0  0  3  0  0  0  0  0  0  0  0  0
    7.7331   -3.2500    0.0000 C   0  0  3  0  0  0  0  0  0  0  0  0
    6.8671   -1.7500    0.0000 C   0  0  3  0  0  0  0  0  0  0  0  0
    8.5991   -2.7500    0.0000 C   0  0  3  0  0  0  0  0  0  0  0  0
   10.3312    1.2500    0.0000 C   0  0  3  0  0  0  0  0  0  0  0  0
    8.5991   -1.7500    0.0000 C   0  0  3  0  0  0  0  0  0  0  0  0
    9.4651    1.7500    0.0000 C   0  0  3  0  0  0  0  0  0  0  0  0
    5.1350   -2.7500    0.0000 C   0  0  3  0  0  0  0  0  0  0  0  0
    9.4651    2.7500    0.0000 C   0  0  3  0  0  0  0  0  0  0  0  0
    4.2690   -3.2500    0.0000 C   0  0  3  0  0  0  0  0  0  0  0  0
   10.3312    3.2500    0.0000 C   0  0  3  0  0  0  0  0  0  0  0  0
   11.1972    2.7500    0.0000 C   0  0  3  0  0  0  0  0  0  0  0  0
    3.4030   -2.7500    0.0000 C   0  0  3  0  0  0  0  0  0  0  0  0
    3.4030   -1.7500    0.0000 C   0  0  3  0  0  0  0  0  0  0  0  0
   10.3312    0.2500    0.0000 C   0  0  0  0  0  0  0  0  0  0  0  0
    4.2690   -1.2500    0.0000 C   0  0  3  0  0  0  0  0  0  0  0  0
    9.4651   -0.2500    0.0000 C   0  0  0  0  0  0  0  0  0  0  0  0
    6.0010   -1.2500    0.0000 C   0  0  0  0  0  0  0  0  0  0  0  0
   12.0632    3.2500    0.0000 C   0  0  0  0  0  0  0  0  0  0  0  0
    4.2690   -0.2500    0.0000 C   0  0  0  0  0  0  0  0  0  0  0  0
    6.3301   -2.4400    0.0000 H   0  0  0  0  0  0  0  0  0  0  0  0
    7.1962   -3.5600    0.0000 H   0  0  0  0  0  0  0  0  0  0  0  0
    6.8671   -1.1300    0.0000 H   0  0  0  0  0  0  0  0  0  0  0  0
    8.5991   -3.3700    0.0000 H   0  0  0  0  0  0  0  0  0  0  0  0
   10.8681    0.9400    0.0000 H   0  0  0  0  0  0  0  0  0  0  0  0
    8.5991   -1.1300    0.0000 H   0  0  0  0  0  0  0  0  0  0  0  0
    9.4651    1.1300    0.0000 H   0  0  0  0  0  0  0  0  0  0  0  0
    5.1350   -3.3700    0.0000 H   0  0  0  0  0  0  0  0  0  0  0  0
   10.0021    2.4400    0.0000 H   0  0  0  0  0  0  0  0  0  0  0  0
    3.7320   -3.5600    0.0000 H   0  0  0  0  0  0  0  0  0  0  0  0
    9.7942    3.5600    0.0000 H   0  0  0  0  0  0  0  0  0  0  0  0
   11.7341    2.4400    0.0000 H   0  0  0  0  0  0  0  0  0  0  0  0
    2.8660   -2.4400    0.0000 H   0  0  0  0  0  0  0  0  0  0  0  0
    3.4030   -1.1300    0.0000 H   0  0  0  0  0  0  0  0  0  0  0  0
   10.5432   -0.3326    0.0000 H   0  0  0  0  0  0  0  0  0  0  0  0
   10.9417    0.3577    0.0000 H   0  0  0  0  0  0  0  0  0  0  0  0
    4.8059   -0.9400    0.0000 H   0  0  0  0  0  0  0  0  0  0  0  0
    9.2531    0.3326    0.0000 H   0  0  0  0  0  0  0  0  0  0  0  0
    8.8546   -0.3577    0.0000 H   0  0  0  0  0  0  0  0  0  0  0  0
    5.3905   -1.1423    0.0000 H   0  0  0  0  0  0  0  0  0  0  0  0
    5.7890   -1.8326    0.0000 H   0  0  0  0  0  0  0  0  0  0  0  0
   12.4617    3.7250    0.0000 H   0  0  0  0  0  0  0  0  0  0  0  0
   11.6647    3.7250    0.0000 H   0  0  0  0  0  0  0  0  0  0  0  0
    4.0569    0.3326    0.0000 H   0  0  0  0  0  0  0  0  0  0  0  0
    3.6584   -0.3577    0.0000 H   0  0  0  0  0  0  0  0  0  0  0  0
    8.2700   -4.5600    0.0000 H   0  0  0  0  0  0  0  0  0  0  0  0
   10.0021   -2.9400    0.0000 H   0  0  0  0  0  0  0  0  0  0  0  0
    8.0622    1.5600    0.0000 H   0  0  0  0  0  0  0  0  0  0  0  0
    8.5991    3.8700    0.0000 H   0  0  0  0  0  0  0  0  0  0  0  0
    3.7320   -4.5600    0.0000 H   0  0  0  0  0  0  0  0  0  0  0  0
   10.8681    4.5600    0.0000 H   0  0  0  0  0  0  0  0  0  0  0  0
    2.0000   -2.9400    0.0000 H   0  0  0  0  0  0  0  0  0  0  0  0
    2.5369   -0.6300    0.0000 H   0  0  0  0  0  0  0  0  0  0  0  0
    6.5380    0.0600    0.0000 H   0  0  0  0  0  0  0  0  0  0  0  0
    5.1350    0.8700    0.0000 H   0  0  0  0  0  0  0  0  0  0  0  0
   15.1982    3.4400    0.0000 H   0  0  0  0  0  0  0  0  0  0  0  0
   13.9853    1.8470    0.0000 H   0  0  0  0  0  0  0  0  0  0  0  0
  1 16  1  0  0  0  0
  1 18  1  0  0  0  0
  1 19  1  0  0  0  0
  1 20  2  0  0  0  0
  2 21  1  0  0  0  0
  2 28  1  0  0  0  0
  3 23  1  0  0  0  0
  3 26  1  0  0  0  0
  4 25  1  0  0  0  0
  4 32  1  0  0  0  0
  5 28  1  0  0  0  0
  5 36  1  0  0  0  0
  6 26  1  0  0  0  0
  6 37  1  0  0  0  0
  7 22  1  0  0  0  0
  7 66  1  0  0  0  0
  8 24  1  0  0  0  0
  8 67  1  0  0  0  0
  9 27  1  0  0  0  0
  9 68  1  0  0  0  0
 10 29  1  0  0  0  0
 10 69  1  0  0  0  0
 11 30  1  0  0  0  0
 11 70  1  0  0  0  0
 12 31  1  0  0  0  0
 12 71  1  0  0  0  0
 13 33  1  0  0  0  0
 13 72  1  0  0  0  0
 14 34  1  0  0  0  0
 14 73  1  0  0  0  0
 15 38  1  0  0  0  0
 15 74  1  0  0  0  0
 16 39  1  0  0  0  0
 17 40  1  0  0  0  0
 17 75  1  0  0  0  0
 18 76  1  0  0  0  0
 19 77  1  0  0  0  0
 21 22  1  0  0  0  0
 21 23  1  0  0  0  0
 21 41  1  0  0  0  0
 22 24  1  0  0  0  0
 22 42  1  0  0  0  0
 23 38  1  0  0  0  0
 23 43  1  0  0  0  0
 24 26  1  0  0  0  0
 24 44  1  0  0  0  0
 25 27  1  0  0  0  0
 25 35  1  0  0  0  0
 25 45  1  0  0  0  0
 26 46  1  0  0  0  0
 27 29  1  0  0  0  0
 27 47  1  0  0  0  0
 28 30  1  0  0  0  0
 28 48  1  0  0  0  0
 29 31  1  0  0  0  0
 29 49  1  0  0  0  0
 30 33  1  0  0  0  0
 30 50  1  0  0  0  0
 31 32  1  0  0  0  0
 31 51  1  0  0  0  0
 32 39  1  0  0  0  0
 32 52  1  0  0  0  0
 33 34  1  0  0  0  0
 33 53  1  0  0  0  0
 34 36  1  0  0  0  0
 34 54  1  0  0  0  0
 35 37  1  0  0  0  0
 35 55  1  0  0  0  0
 35 56  1  0  0  0  0
 36 40  1  0  0  0  0
 36 57  1  0  0  0  0
 37 58  1  0  0  0  0
 37 59  1  0  0  0  0
 38 60  1  0  0  0  0
 38 61  1  0  0  0  0
 39 62  1  0  0  0  0
 39 63  1  0  0  0  0
 40 64  1  0  0  0  0
 40 65  1  0  0  0  0
M  END
> <PUBCHEM_COMPOUND_CID>
69735153

> <PUBCHEM_COMPOUND_CANONICALIZED>
1

> <PUBCHEM_CACTVS_COMPLEXITY>
832

> <PUBCHEM_CACTVS_HBOND_ACCEPTOR>
19

> <PUBCHEM_CACTVS_HBOND_DONOR>
12

> <PUBCHEM_CACTVS_ROTATABLE_BOND>
11

> <PUBCHEM_CACTVS_SUBSKEYS>
AAADcfB4PgIAAAAAAAAAAAAAAAAAAAAAAAAkSJAAAAAAAAAAAAAAGgAACCAACBSwgAMACAAABxAAQAAAAIAAAAAAAAAAAAAAAAAREAIAAAAiQAAFAAAHAAHA4KwAAAAAAAAAAAAAAAAAAAAAAAAAAAAAAA==

> <PUBCHEM_IUPAC_OPENEYE_NAME>
[6-[2-[3,4-dihydroxy-6-(hydroxymethyl)-5-[3,4,5-trihydroxy-6-(hydroxymethyl)tetrahydropyran-2-yl]oxy-tetrahydropyran-2-yl]oxyethyl]-3,4,5-trihydroxy-tetrahydropyran-2-yl]methyl dihydrogen phosphate

> <PUBCHEM_IUPAC_CAS_NAME>
[6-[2-[[3,4-dihydroxy-6-(hydroxymethyl)-5-[[3,4,5-trihydroxy-6-(hydroxymethyl)-2-oxanyl]oxy]-2-oxanyl]oxy]ethyl]-3,4,5-trihydroxy-2-oxanyl]methyl dihydrogen phosphate

> <PUBCHEM_IUPAC_NAME_MARKUP>
[6-[2-[3,4-dihydroxy-6-(hydroxymethyl)-5-[3,4,5-trihydroxy-6-(hydroxymethyl)oxan-2-yl]oxyoxan-2-yl]oxyethyl]-3,4,5-trihydroxyoxan-2-yl]methyl dihydrogen phosphate

> <PUBCHEM_IUPAC_NAME>
[6-[2-[3,4-dihydroxy-6-(hydroxymethyl)-5-[3,4,5-trihydroxy-6-(hydroxymethyl)oxan-2-yl]oxyoxan-2-yl]oxyethyl]-3,4,5-trihydroxyoxan-2-yl]methyl dihydrogen phosphate

> <PUBCHEM_IUPAC_SYSTEMATIC_NAME>
[6-[2-[6-(hydroxymethyl)-5-[6-(hydroxymethyl)-3,4,5-tris(oxidanyl)oxan-2-yl]oxy-3,4-bis(oxidanyl)oxan-2-yl]oxyethyl]-3,4,5-tris(oxidanyl)oxan-2-yl]methyl dihydrogen phosphate

> <PUBCHEM_IUPAC_TRADITIONAL_NAME>
[6-[2-[3,4-dihydroxy-6-methylol-5-(3,4,5-trihydroxy-6-methylol-tetrahydropyran-2-yl)oxy-tetrahydropyran-2-yl]oxyethyl]-3,4,5-trihydroxy-tetrahydropyran-2-yl]methyl dihydrogen phosphate

> <PUBCHEM_IUPAC_INCHI>
InChI=1S/C20H37O19P/c21-3-7-11(24)14(27)16(29)20(37-7)39-18-8(4-22)38-19(17(30)15(18)28)34-2-1-6-10(23)13(26)12(25)9(36-6)5-35-40(31,32)33/h6-30H,1-5H2,(H2,31,32,33)

> <PUBCHEM_IUPAC_INCHIKEY>
IANUKPKFIXGVSU-UHFFFAOYSA-N

> <PUBCHEM_XLOGP3_AA>
-7.7

> <PUBCHEM_EXACT_MASS>
612.16666594

> <PUBCHEM_MOLECULAR_FORMULA>
C20H37O19P

> <PUBCHEM_MOLECULAR_WEIGHT>
612.5

> <PUBCHEM_OPENEYE_CAN_SMILES>
C(COC1C(C(C(C(O1)CO)OC2C(C(C(C(O2)CO)O)O)O)O)O)C3C(C(C(C(O3)COP(=O)(O)O)O)O)O

> <PUBCHEM_OPENEYE_ISO_SMILES>
C(COC1C(C(C(C(O1)CO)OC2C(C(C(C(O2)CO)O)O)O)O)O)C3C(C(C(C(O3)COP(=O)(O)O)O)O)O

> <PUBCHEM_CACTVS_TPSA>
315

> <PUBCHEM_MONOISOTOPIC_WEIGHT>
612.16666594

> <PUBCHEM_TOTAL_CHARGE>
0

> <PUBCHEM_HEAVY_ATOM_COUNT>
40

> <PUBCHEM_ATOM_DEF_STEREO_COUNT>
0

> <PUBCHEM_ATOM_UDEF_STEREO_COUNT>
15

> <PUBCHEM_BOND_DEF_STEREO_COUNT>
0

> <PUBCHEM_BOND_UDEF_STEREO_COUNT>
0

> <PUBCHEM_ISOTOPIC_ATOM_COUNT>
0

> <PUBCHEM_COMPONENT_COUNT>
1

> <PUBCHEM_CACTVS_TAUTO_COUNT>
-1

> <PUBCHEM_COORDINATE_TYPE>
1
5
255

> <PUBCHEM_BONDANNOTATIONS>
29  10  3
30  11  3
31  12  3
33  13  3
34  14  3
21  2  3
28  2  3
23  38  3
25  35  3
32  39  3
36  40  3
26  6  3
22  7  3
24  8  3
27  9  3

$$$$
