 
  -OEChem-10192104292D

 41 40  0     0  0  0  0  0  0999 V2000
    2.5369    2.7626    0.0000 O   0  0  0  0  0  0  0  0  0  0  0  0
    6.0010    2.7626    0.0000 O   0  0  0  0  0  0  0  0  0  0  0  0
    4.2690    4.4947    0.0000 O   0  0  0  0  0  0  0  0  0  0  0  0
    3.4030    1.2626    0.0000 O   0  0  0  0  0  0  0  0  0  0  0  0
    5.1350    4.2626    0.0000 O   0  0  0  0  0  0  0  0  0  0  0  0
    2.7690    3.6286    0.0000 O   0  0  0  0  0  0  0  0  0  0  0  0
    4.7690    0.1645    0.0000 C   0  0  0  0  0  0  0  0  0  0  0  0
    4.2690    1.0306    0.0000 C   0  0  0  0  0  0  0  0  0  0  0  0
    4.2690   -0.7015    0.0000 C   0  0  0  0  0  0  0  0  0  0  0  0
    4.7690    1.8966    0.0000 C   0  0  0  0  0  0  0  0  0  0  0  0
    4.7690   -1.5675    0.0000 C   0  0  0  0  0  0  0  0  0  0  0  0
    4.2690    2.7626    0.0000 C   0  0  0  0  0  0  0  0  0  0  0  0
    4.2690   -2.4335    0.0000 C   0  0  0  0  0  0  0  0  0  0  0  0
    4.7690   -3.2996    0.0000 C   0  0  0  0  0  0  0  0  0  0  0  0
    4.2690   -4.1656    0.0000 C   0  0  0  0  0  0  0  0  0  0  0  0
    3.4030    2.2626    0.0000 C   0  0  0  0  0  0  0  0  0  0  0  0
    5.1350    3.2626    0.0000 C   0  0  0  0  0  0  0  0  0  0  0  0
    3.7690    3.6286    0.0000 C   0  0  0  0  0  0  0  0  0  0  0  0
    4.7690   -5.0316    0.0000 C   0  0  0  0  0  0  0  0  0  0  0  0
    5.2439   -0.2340    0.0000 H   0  0  0  0  0  0  0  0  0  0  0  0
    5.2439    0.5631    0.0000 H   0  0  0  0  0  0  0  0  0  0  0  0
    3.7940    1.4291    0.0000 H   0  0  0  0  0  0  0  0  0  0  0  0
    3.7940    0.6320    0.0000 H   0  0  0  0  0  0  0  0  0  0  0  0
    3.7940   -0.3030    0.0000 H   0  0  0  0  0  0  0  0  0  0  0  0
    3.7940   -1.1000    0.0000 H   0  0  0  0  0  0  0  0  0  0  0  0
    5.2439    1.4981    0.0000 H   0  0  0  0  0  0  0  0  0  0  0  0
    5.2439    2.2951    0.0000 H   0  0  0  0  0  0  0  0  0  0  0  0
    5.2439   -1.9660    0.0000 H   0  0  0  0  0  0  0  0  0  0  0  0
    5.2439   -1.1690    0.0000 H   0  0  0  0  0  0  0  0  0  0  0  0
    3.7940   -2.0350    0.0000 H   0  0  0  0  0  0  0  0  0  0  0  0
    3.7940   -2.8321    0.0000 H   0  0  0  0  0  0  0  0  0  0  0  0
    5.2439   -3.6981    0.0000 H   0  0  0  0  0  0  0  0  0  0  0  0
    5.2439   -2.9010    0.0000 H   0  0  0  0  0  0  0  0  0  0  0  0
    3.7940   -3.7670    0.0000 H   0  0  0  0  0  0  0  0  0  0  0  0
    3.7940   -4.5641    0.0000 H   0  0  0  0  0  0  0  0  0  0  0  0
    4.2320   -5.3416    0.0000 H   0  0  0  0  0  0  0  0  0  0  0  0
    5.0790   -5.5685    0.0000 H   0  0  0  0  0  0  0  0  0  0  0  0
    5.3059   -4.7216    0.0000 H   0  0  0  0  0  0  0  0  0  0  0  0
    2.0000    2.4526    0.0000 H   0  0  0  0  0  0  0  0  0  0  0  0
    6.5380    3.0726    0.0000 H   0  0  0  0  0  0  0  0  0  0  0  0
    3.9590    5.0316    0.0000 H   0  0  0  0  0  0  0  0  0  0  0  0
  1 16  1  0  0  0  0
  1 39  1  0  0  0  0
  2 17  1  0  0  0  0
  2 40  1  0  0  0  0
  3 18  1  0  0  0  0
  3 41  1  0  0  0  0
  4 16  2  0  0  0  0
  5 17  2  0  0  0  0
  6 18  2  0  0  0  0
  7  8  1  0  0  0  0
  7  9  1  0  0  0  0
  7 20  1  0  0  0  0
  7 21  1  0  0  0  0
  8 10  1  0  0  0  0
  8 22  1  0  0  0  0
  8 23  1  0  0  0  0
  9 11  1  0  0  0  0
  9 24  1  0  0  0  0
  9 25  1  0  0  0  0
 10 12  1  0  0  0  0
 10 26  1  0  0  0  0
 10 27  1  0  0  0  0
 11 13  1  0  0  0  0
 11 28  1  0  0  0  0
 11 29  1  0  0  0  0
 12 16  1  0  0  0  0
 12 17  1  0  0  0  0
 12 18  1  0  0  0  0
 13 14  1  0  0  0  0
 13 30  1  0  0  0  0
 13 31  1  0  0  0  0
 14 15  1  0  0  0  0
 14 32  1  0  0  0  0
 14 33  1  0  0  0  0
 15 19  1  0  0  0  0
 15 34  1  0  0  0  0
 15 35  1  0  0  0  0
 19 36  1  0  0  0  0
 19 37  1  0  0  0  0
 19 38  1  0  0  0  0
M  END
> <PUBCHEM_COMPOUND_CID>
21888983

> <PUBCHEM_COMPOUND_CANONICALIZED>
1

> <PUBCHEM_CACTVS_COMPLEXITY>
287

> <PUBCHEM_CACTVS_HBOND_ACCEPTOR>
6

> <PUBCHEM_CACTVS_HBOND_DONOR>
3

> <PUBCHEM_CACTVS_ROTATABLE_BOND>
11

> <PUBCHEM_CACTVS_SUBSKEYS>
AAADceBwOAAAAAAAAAAAAAAAAAAAAAAAAAAAAAAAAAAAAAAAAAAAGgAACAAADgCAgAACCAAAAgAIAACQCAAAAAAAAAAAAAEAAAAAABYIAAAAQAAFIAAAAAGIyOCNAAAAAAAAAAAAAAAAAAAAAAAAAAAAAA==

> <PUBCHEM_IUPAC_OPENEYE_NAME>
decane-1,1,1-tricarboxylic acid

> <PUBCHEM_IUPAC_CAS_NAME>
decane-1,1,1-tricarboxylic acid

> <PUBCHEM_IUPAC_NAME_MARKUP>
decane-1,1,1-tricarboxylic acid

> <PUBCHEM_IUPAC_NAME>
decane-1,1,1-tricarboxylic acid

> <PUBCHEM_IUPAC_SYSTEMATIC_NAME>
decane-1,1,1-tricarboxylic acid

> <PUBCHEM_IUPAC_TRADITIONAL_NAME>
decane-1,1,1-tricarboxylic acid

> <PUBCHEM_IUPAC_INCHI>
InChI=1S/C13H22O6/c1-2-3-4-5-6-7-8-9-13(10(14)15,11(16)17)12(18)19/h2-9H2,1H3,(H,14,15)(H,16,17)(H,18,19)

> <PUBCHEM_IUPAC_INCHIKEY>
GXFFCJFXZPEAKI-UHFFFAOYSA-N

> <PUBCHEM_XLOGP3_AA>
3.8

> <PUBCHEM_EXACT_MASS>
274.14163842

> <PUBCHEM_MOLECULAR_FORMULA>
C13H22O6

> <PUBCHEM_MOLECULAR_WEIGHT>
274.31

> <PUBCHEM_OPENEYE_CAN_SMILES>
CCCCCCCCCC(C(=O)O)(C(=O)O)C(=O)O

> <PUBCHEM_OPENEYE_ISO_SMILES>
CCCCCCCCCC(C(=O)O)(C(=O)O)C(=O)O

> <PUBCHEM_CACTVS_TPSA>
112

> <PUBCHEM_MONOISOTOPIC_WEIGHT>
274.14163842

> <PUBCHEM_TOTAL_CHARGE>
0

> <PUBCHEM_HEAVY_ATOM_COUNT>
19

> <PUBCHEM_ATOM_DEF_STEREO_COUNT>
0

> <PUBCHEM_ATOM_UDEF_STEREO_COUNT>
0

> <PUBCHEM_BOND_DEF_STEREO_COUNT>
0

> <PUBCHEM_BOND_UDEF_STEREO_COUNT>
0

> <PUBCHEM_ISOTOPIC_ATOM_COUNT>
0

> <PUBCHEM_COMPONENT_COUNT>
1

> <PUBCHEM_CACTVS_TAUTO_COUNT>
-1

> <PUBCHEM_COORDINATE_TYPE>
1
5
255

$$$$
