 
  -OEChem-10192104112D

 90 90  0     1  0  0  0  0  0999 V2000
   16.3933    4.7500    0.0000 O   0  0  0  0  0  0  0  0  0  0  0  0
   17.2594    3.2500    0.0000 O   0  0  0  0  0  0  0  0  0  0  0  0
    2.5369   -3.2500    0.0000 O   0  0  0  0  0  0  0  0  0  0  0  0
    3.4030   -4.7500    0.0000 O   0  0  0  0  0  0  0  0  0  0  0  0
   14.6613    4.7500    0.0000 O   0  0  0  0  0  0  0  0  0  0  0  0
   16.3933    1.7500    0.0000 O   0  0  0  0  0  0  0  0  0  0  0  0
    3.4030   -1.7500    0.0000 O   0  0  0  0  0  0  0  0  0  0  0  0
    5.1350   -4.7500    0.0000 O   0  0  0  0  0  0  0  0  0  0  0  0
   12.0632   -2.7500    0.0000 C   0  0  3  0  0  0  0  0  0  0  0  0
   11.1972   -3.2500    0.0000 C   0  0  3  0  0  0  0  0  0  0  0  0
   12.9292   -3.2500    0.0000 C   0  0  3  0  0  0  0  0  0  0  0  0
   11.1972   -4.2500    0.0000 C   0  0  3  0  0  0  0  0  0  0  0  0
   12.9292   -4.2500    0.0000 C   0  0  0  0  0  0  0  0  0  0  0  0
   12.0632   -4.7500    0.0000 C   0  0  0  0  0  0  0  0  0  0  0  0
   12.0632   -1.7500    0.0000 C   0  0  0  0  0  0  0  0  0  0  0  0
   10.3312   -2.7500    0.0000 C   0  0  0  0  0  0  0  0  0  0  0  0
   13.7953   -2.7500    0.0000 C   0  0  0  0  0  0  0  0  0  0  0  0
   10.3312   -4.7500    0.0000 C   0  0  0  0  0  0  0  0  0  0  0  0
   12.9292   -1.2500    0.0000 C   0  0  0  0  0  0  0  0  0  0  0  0
    9.4651   -3.2500    0.0000 C   0  0  0  0  0  0  0  0  0  0  0  0
   14.6613   -3.2500    0.0000 C   0  0  0  0  0  0  0  0  0  0  0  0
   12.9292   -0.2500    0.0000 C   0  0  0  0  0  0  0  0  0  0  0  0
    8.5991   -2.7500    0.0000 C   0  0  0  0  0  0  0  0  0  0  0  0
   15.5273   -2.7500    0.0000 C   0  0  0  0  0  0  0  0  0  0  0  0
   13.7953    0.2500    0.0000 C   0  0  0  0  0  0  0  0  0  0  0  0
    7.7331   -3.2500    0.0000 C   0  0  0  0  0  0  0  0  0  0  0  0
   13.7953    1.2500    0.0000 C   0  0  0  0  0  0  0  0  0  0  0  0
    6.8671   -2.7500    0.0000 C   0  0  0  0  0  0  0  0  0  0  0  0
   14.6613    1.7500    0.0000 C   0  0  0  0  0  0  0  0  0  0  0  0
    6.0010   -3.2500    0.0000 C   0  0  0  0  0  0  0  0  0  0  0  0
   14.6613    2.7500    0.0000 C   0  0  0  0  0  0  0  0  0  0  0  0
    5.1350   -2.7500    0.0000 C   0  0  0  0  0  0  0  0  0  0  0  0
   15.5273    3.2500    0.0000 C   0  0  0  0  0  0  0  0  0  0  0  0
    4.2690   -3.2500    0.0000 C   0  0  0  0  0  0  0  0  0  0  0  0
   15.5273    4.2500    0.0000 C   0  0  0  0  0  0  0  0  0  0  0  0
   16.3933    2.7500    0.0000 C   0  0  0  0  0  0  0  0  0  0  0  0
    3.4030   -2.7500    0.0000 C   0  0  0  0  0  0  0  0  0  0  0  0
    4.2690   -4.2500    0.0000 C   0  0  0  0  0  0  0  0  0  0  0  0
   12.6002   -2.4400    0.0000 H   0  0  0  0  0  0  0  0  0  0  0  0
   10.6603   -3.5600    0.0000 H   0  0  0  0  0  0  0  0  0  0  0  0
   13.4662   -3.5600    0.0000 H   0  0  0  0  0  0  0  0  0  0  0  0
   11.1972   -4.8700    0.0000 H   0  0  0  0  0  0  0  0  0  0  0  0
   13.1413   -4.8326    0.0000 H   0  0  0  0  0  0  0  0  0  0  0  0
   13.5398   -4.1423    0.0000 H   0  0  0  0  0  0  0  0  0  0  0  0
   11.6647   -5.2250    0.0000 H   0  0  0  0  0  0  0  0  0  0  0  0
   12.4617   -5.2250    0.0000 H   0  0  0  0  0  0  0  0  0  0  0  0
   11.8512   -1.1674    0.0000 H   0  0  0  0  0  0  0  0  0  0  0  0
   11.4526   -1.8577    0.0000 H   0  0  0  0  0  0  0  0  0  0  0  0
   10.7297   -2.2750    0.0000 H   0  0  0  0  0  0  0  0  0  0  0  0
    9.9326   -2.2750    0.0000 H   0  0  0  0  0  0  0  0  0  0  0  0
   14.1938   -2.2750    0.0000 H   0  0  0  0  0  0  0  0  0  0  0  0
   13.3967   -2.2750    0.0000 H   0  0  0  0  0  0  0  0  0  0  0  0
   10.0212   -4.2131    0.0000 H   0  0  0  0  0  0  0  0  0  0  0  0
    9.7942   -5.0600    0.0000 H   0  0  0  0  0  0  0  0  0  0  0  0
   10.6412   -5.2869    0.0000 H   0  0  0  0  0  0  0  0  0  0  0  0
   13.1413   -1.8326    0.0000 H   0  0  0  0  0  0  0  0  0  0  0  0
   13.5398   -1.1423    0.0000 H   0  0  0  0  0  0  0  0  0  0  0  0
    9.0666   -3.7250    0.0000 H   0  0  0  0  0  0  0  0  0  0  0  0
    9.8637   -3.7250    0.0000 H   0  0  0  0  0  0  0  0  0  0  0  0
   14.2628   -3.7250    0.0000 H   0  0  0  0  0  0  0  0  0  0  0  0
   15.0598   -3.7250    0.0000 H   0  0  0  0  0  0  0  0  0  0  0  0
   12.7172    0.3326    0.0000 H   0  0  0  0  0  0  0  0  0  0  0  0
   12.3187   -0.3577    0.0000 H   0  0  0  0  0  0  0  0  0  0  0  0
    8.9976   -2.2750    0.0000 H   0  0  0  0  0  0  0  0  0  0  0  0
    8.2006   -2.2750    0.0000 H   0  0  0  0  0  0  0  0  0  0  0  0
   15.8373   -3.2869    0.0000 H   0  0  0  0  0  0  0  0  0  0  0  0
   16.0643   -2.4400    0.0000 H   0  0  0  0  0  0  0  0  0  0  0  0
   15.2173   -2.2131    0.0000 H   0  0  0  0  0  0  0  0  0  0  0  0
   14.0073   -0.3326    0.0000 H   0  0  0  0  0  0  0  0  0  0  0  0
   14.4058    0.3577    0.0000 H   0  0  0  0  0  0  0  0  0  0  0  0
    7.3346   -3.7250    0.0000 H   0  0  0  0  0  0  0  0  0  0  0  0
    8.1316   -3.7250    0.0000 H   0  0  0  0  0  0  0  0  0  0  0  0
   13.5832    1.8326    0.0000 H   0  0  0  0  0  0  0  0  0  0  0  0
   13.1847    1.1423    0.0000 H   0  0  0  0  0  0  0  0  0  0  0  0
    7.2656   -2.2750    0.0000 H   0  0  0  0  0  0  0  0  0  0  0  0
    6.4685   -2.2750    0.0000 H   0  0  0  0  0  0  0  0  0  0  0  0
   14.8733    1.1674    0.0000 H   0  0  0  0  0  0  0  0  0  0  0  0
   15.2719    1.8577    0.0000 H   0  0  0  0  0  0  0  0  0  0  0  0
    5.6025   -3.7250    0.0000 H   0  0  0  0  0  0  0  0  0  0  0  0
    6.3996   -3.7250    0.0000 H   0  0  0  0  0  0  0  0  0  0  0  0
   14.4492    3.3326    0.0000 H   0  0  0  0  0  0  0  0  0  0  0  0
   14.0507    2.6423    0.0000 H   0  0  0  0  0  0  0  0  0  0  0  0
    5.5335   -2.2750    0.0000 H   0  0  0  0  0  0  0  0  0  0  0  0
    4.7365   -2.2750    0.0000 H   0  0  0  0  0  0  0  0  0  0  0  0
   15.5273    2.6300    0.0000 H   0  0  0  0  0  0  0  0  0  0  0  0
    4.2690   -2.6300    0.0000 H   0  0  0  0  0  0  0  0  0  0  0  0
   16.3933    5.3700    0.0000 H   0  0  0  0  0  0  0  0  0  0  0  0
   17.7963    2.9400    0.0000 H   0  0  0  0  0  0  0  0  0  0  0  0
    2.0000   -2.9400    0.0000 H   0  0  0  0  0  0  0  0  0  0  0  0
    3.4030   -5.3700    0.0000 H   0  0  0  0  0  0  0  0  0  0  0  0
  1 35  1  0  0  0  0
  1 87  1  0  0  0  0
  2 36  1  0  0  0  0
  2 88  1  0  0  0  0
  3 37  1  0  0  0  0
  3 89  1  0  0  0  0
  4 38  1  0  0  0  0
  4 90  1  0  0  0  0
  5 35  2  0  0  0  0
  6 36  2  0  0  0  0
  7 37  2  0  0  0  0
  8 38  2  0  0  0  0
  9 10  1  0  0  0  0
  9 11  1  0  0  0  0
  9 15  1  0  0  0  0
  9 39  1  0  0  0  0
 10 12  1  0  0  0  0
 10 16  1  0  0  0  0
 10 40  1  0  0  0  0
 11 13  1  0  0  0  0
 11 17  1  0  0  0  0
 11 41  1  0  0  0  0
 12 14  1  0  0  0  0
 12 18  1  0  0  0  0
 12 42  1  0  0  0  0
 13 14  1  0  0  0  0
 13 43  1  0  0  0  0
 13 44  1  0  0  0  0
 14 45  1  0  0  0  0
 14 46  1  0  0  0  0
 15 19  1  0  0  0  0
 15 47  1  0  0  0  0
 15 48  1  0  0  0  0
 16 20  1  0  0  0  0
 16 49  1  0  0  0  0
 16 50  1  0  0  0  0
 17 21  1  0  0  0  0
 17 51  1  0  0  0  0
 17 52  1  0  0  0  0
 18 53  1  0  0  0  0
 18 54  1  0  0  0  0
 18 55  1  0  0  0  0
 19 22  1  0  0  0  0
 19 56  1  0  0  0  0
 19 57  1  0  0  0  0
 20 23  1  0  0  0  0
 20 58  1  0  0  0  0
 20 59  1  0  0  0  0
 21 24  1  0  0  0  0
 21 60  1  0  0  0  0
 21 61  1  0  0  0  0
 22 25  1  0  0  0  0
 22 62  1  0  0  0  0
 22 63  1  0  0  0  0
 23 26  1  0  0  0  0
 23 64  1  0  0  0  0
 23 65  1  0  0  0  0
 24 66  1  0  0  0  0
 24 67  1  0  0  0  0
 24 68  1  0  0  0  0
 25 27  1  0  0  0  0
 25 69  1  0  0  0  0
 25 70  1  0  0  0  0
 26 28  1  0  0  0  0
 26 71  1  0  0  0  0
 26 72  1  0  0  0  0
 27 29  1  0  0  0  0
 27 73  1  0  0  0  0
 27 74  1  0  0  0  0
 28 30  1  0  0  0  0
 28 75  1  0  0  0  0
 28 76  1  0  0  0  0
 29 31  1  0  0  0  0
 29 77  1  0  0  0  0
 29 78  1  0  0  0  0
 30 32  1  0  0  0  0
 30 79  1  0  0  0  0
 30 80  1  0  0  0  0
 31 33  1  0  0  0  0
 31 81  1  0  0  0  0
 31 82  1  0  0  0  0
 32 34  1  0  0  0  0
 32 83  1  0  0  0  0
 32 84  1  0  0  0  0
 33 35  1  0  0  0  0
 33 36  1  0  0  0  0
 33 85  1  0  0  0  0
 34 37  1  0  0  0  0
 34 38  1  0  0  0  0
 34 86  1  0  0  0  0
M  END
> <PUBCHEM_COMPOUND_CID>
68417803

> <PUBCHEM_COMPOUND_CANONICALIZED>
1

> <PUBCHEM_CACTVS_COMPLEXITY>
693

> <PUBCHEM_CACTVS_HBOND_ACCEPTOR>
8

> <PUBCHEM_CACTVS_HBOND_DONOR>
4

> <PUBCHEM_CACTVS_ROTATABLE_BOND>
22

> <PUBCHEM_CACTVS_SUBSKEYS>
AAADcfB4PAAAAAAAAAAAAAAAAAAAAAAAAAAwAAAAAAAAAAAAAAAAGgAACAAADQCAgAACCAAAAgAIAACQCAAAAAAAAAAAAAEAAAAAABYIAAAAQAAFIAAAAAGIyOCOgAAAAAAAAACAAAQAACAAAAAAAAAAAA==

> <PUBCHEM_IUPAC_OPENEYE_NAME>
2-[7-[2-(8,8-dicarboxyoctyl)-6-methyl-3-propyl-cyclohexyl]heptyl]propanedioic acid

> <PUBCHEM_IUPAC_CAS_NAME>
2-[7-[2-(8,8-dicarboxyoctyl)-6-methyl-3-propylcyclohexyl]heptyl]propanedioic acid

> <PUBCHEM_IUPAC_NAME_MARKUP>
2-[7-[2-(8,8-dicarboxyoctyl)-6-methyl-3-propylcyclohexyl]heptyl]propanedioic acid

> <PUBCHEM_IUPAC_NAME>
2-[7-[2-(8,8-dicarboxyoctyl)-6-methyl-3-propylcyclohexyl]heptyl]propanedioic acid

> <PUBCHEM_IUPAC_SYSTEMATIC_NAME>
2-[7-[2-(8-carboxy-9-oxidanyl-9-oxidanylidene-nonyl)-6-methyl-3-propyl-cyclohexyl]heptyl]propanedioic acid

> <PUBCHEM_IUPAC_TRADITIONAL_NAME>
2-[7-[2-(8,8-dicarboxyoctyl)-6-methyl-3-propyl-cyclohexyl]heptyl]malonic acid

> <PUBCHEM_IUPAC_INCHI>
InChI=1S/C30H52O8/c1-3-14-22-20-19-21(2)23(15-10-6-4-8-12-17-25(27(31)32)28(33)34)24(22)16-11-7-5-9-13-18-26(29(35)36)30(37)38/h21-26H,3-20H2,1-2H3,(H,31,32)(H,33,34)(H,35,36)(H,37,38)

> <PUBCHEM_IUPAC_INCHIKEY>
MPZYUMSCDVPJGE-UHFFFAOYSA-N

> <PUBCHEM_XLOGP3_AA>
10.1

> <PUBCHEM_EXACT_MASS>
540.36621861

> <PUBCHEM_MOLECULAR_FORMULA>
C30H52O8

> <PUBCHEM_MOLECULAR_WEIGHT>
540.7

> <PUBCHEM_OPENEYE_CAN_SMILES>
CCCC1CCC(C(C1CCCCCCCC(C(=O)O)C(=O)O)CCCCCCCC(C(=O)O)C(=O)O)C

> <PUBCHEM_OPENEYE_ISO_SMILES>
CCCC1CCC(C(C1CCCCCCCC(C(=O)O)C(=O)O)CCCCCCCC(C(=O)O)C(=O)O)C

> <PUBCHEM_CACTVS_TPSA>
149

> <PUBCHEM_MONOISOTOPIC_WEIGHT>
540.36621861

> <PUBCHEM_TOTAL_CHARGE>
0

> <PUBCHEM_HEAVY_ATOM_COUNT>
38

> <PUBCHEM_ATOM_DEF_STEREO_COUNT>
0

> <PUBCHEM_ATOM_UDEF_STEREO_COUNT>
4

> <PUBCHEM_BOND_DEF_STEREO_COUNT>
0

> <PUBCHEM_BOND_UDEF_STEREO_COUNT>
0

> <PUBCHEM_ISOTOPIC_ATOM_COUNT>
0

> <PUBCHEM_COMPONENT_COUNT>
1

> <PUBCHEM_CACTVS_TAUTO_COUNT>
-1

> <PUBCHEM_COORDINATE_TYPE>
1
5
255

> <PUBCHEM_BONDANNOTATIONS>
10  16  3
11  17  3
12  18  3
9  15  3

$$$$
