 
  -OEChem-10192103262D

 54 54  0     1  0  0  0  0  0999 V2000
    7.1962    0.8450    0.0000 S   0  0  0  0  0  0  0  0  0  0  0  0
    5.4641    0.8450    0.0000 O   0  0  0  0  0  0  0  0  0  0  0  0
    5.4641   -2.1550    0.0000 O   0  0  0  0  0  0  0  0  0  0  0  0
    3.7320   -1.1550    0.0000 O   0  0  0  0  0  0  0  0  0  0  0  0
    7.1962   -1.1550    0.0000 O   0  0  0  0  0  0  0  0  0  0  0  0
    3.7320    1.8450    0.0000 O   0  0  0  0  0  0  0  0  0  0  0  0
    8.0622    3.3450    0.0000 O   0  0  0  0  0  0  0  0  0  0  0  0
    3.7320   -2.1550    0.0000 O   0  0  0  0  0  0  0  0  0  0  0  0
    2.8660    0.3450    0.0000 O   0  0  0  0  0  0  0  0  0  0  0  0
    8.0622    0.3450    0.0000 O   0  0  0  0  0  0  0  0  0  0  0  0
    2.0000    1.8450    0.0000 O   0  0  0  0  0  0  0  0  0  0  0  0
    5.4641   -1.1550    0.0000 C   0  0  1  0  0  0  0  0  0  0  0  0
    4.5981   -0.6550    0.0000 C   0  0  1  0  0  0  0  0  0  0  0  0
    6.3301   -0.6550    0.0000 C   0  0  2  0  0  0  0  0  0  0  0  0
    4.5981    0.3450    0.0000 C   0  0  1  0  0  0  0  0  0  0  0  0
    6.3301    0.3450    0.0000 C   0  0  2  0  0  0  0  0  0  0  0  0
    3.7320    0.8450    0.0000 C   0  0  0  0  0  0  0  0  0  0  0  0
    7.1962    1.8450    0.0000 C   0  0  0  0  0  0  0  0  0  0  0  0
    4.5981   -2.6550    0.0000 C   0  0  0  0  0  0  0  0  0  0  0  0
    2.8660   -0.6550    0.0000 C   0  0  0  0  0  0  0  0  0  0  0  0
    8.0622    2.3450    0.0000 C   0  0  3  0  0  0  0  0  0  0  0  0
    8.0622   -0.6550    0.0000 C   0  0  0  0  0  0  0  0  0  0  0  0
    4.5981   -3.6550    0.0000 C   0  0  0  0  0  0  0  0  0  0  0  0
    2.0000   -1.1550    0.0000 C   0  0  0  0  0  0  0  0  0  0  0  0
    2.8660    2.3450    0.0000 C   0  0  0  0  0  0  0  0  0  0  0  0
    8.9282    1.8450    0.0000 C   0  0  0  0  0  0  0  0  0  0  0  0
    8.9282   -1.1550    0.0000 C   0  0  0  0  0  0  0  0  0  0  0  0
    2.8660    3.3450    0.0000 C   0  0  0  0  0  0  0  0  0  0  0  0
    4.9272   -1.4650    0.0000 H   0  0  0  0  0  0  0  0  0  0  0  0
    4.5981   -1.2750    0.0000 H   0  0  0  0  0  0  0  0  0  0  0  0
    6.3301   -1.2750    0.0000 H   0  0  0  0  0  0  0  0  0  0  0  0
    4.5981    0.9650    0.0000 H   0  0  0  0  0  0  0  0  0  0  0  0
    6.3301    0.9650    0.0000 H   0  0  0  0  0  0  0  0  0  0  0  0
    3.1215    0.9527    0.0000 H   0  0  0  0  0  0  0  0  0  0  0  0
    3.5200    0.2624    0.0000 H   0  0  0  0  0  0  0  0  0  0  0  0
    6.9841    2.4276    0.0000 H   0  0  0  0  0  0  0  0  0  0  0  0
    6.5856    1.7373    0.0000 H   0  0  0  0  0  0  0  0  0  0  0  0
    7.5252    2.6550    0.0000 H   0  0  0  0  0  0  0  0  0  0  0  0
    3.9781   -3.6550    0.0000 H   0  0  0  0  0  0  0  0  0  0  0  0
    4.5981   -4.2750    0.0000 H   0  0  0  0  0  0  0  0  0  0  0  0
    5.2181   -3.6550    0.0000 H   0  0  0  0  0  0  0  0  0  0  0  0
    1.6900   -0.6181    0.0000 H   0  0  0  0  0  0  0  0  0  0  0  0
    1.4631   -1.4650    0.0000 H   0  0  0  0  0  0  0  0  0  0  0  0
    2.3100   -1.6919    0.0000 H   0  0  0  0  0  0  0  0  0  0  0  0
    8.6182    1.3081    0.0000 H   0  0  0  0  0  0  0  0  0  0  0  0
    9.4651    1.5350    0.0000 H   0  0  0  0  0  0  0  0  0  0  0  0
    9.2382    2.3819    0.0000 H   0  0  0  0  0  0  0  0  0  0  0  0
    8.6182   -1.6919    0.0000 H   0  0  0  0  0  0  0  0  0  0  0  0
    9.4651   -1.4650    0.0000 H   0  0  0  0  0  0  0  0  0  0  0  0
    9.2382   -0.6181    0.0000 H   0  0  0  0  0  0  0  0  0  0  0  0
    8.5991    3.6550    0.0000 H   0  0  0  0  0  0  0  0  0  0  0  0
    3.4860    3.3450    0.0000 H   0  0  0  0  0  0  0  0  0  0  0  0
    2.8660    3.9650    0.0000 H   0  0  0  0  0  0  0  0  0  0  0  0
    2.2460    3.3450    0.0000 H   0  0  0  0  0  0  0  0  0  0  0  0
 16  1  1  1  0  0  0
  1 18  1  0  0  0  0
  2 15  1  0  0  0  0
  2 16  1  0  0  0  0
 12  3  1  1  0  0  0
  3 19  1  0  0  0  0
 13  4  1  6  0  0  0
  4 20  1  0  0  0  0
 14  5  1  6  0  0  0
  5 22  1  0  0  0  0
  6 17  1  0  0  0  0
  6 25  1  0  0  0  0
  7 21  1  0  0  0  0
  7 51  1  0  0  0  0
  8 19  2  0  0  0  0
  9 20  2  0  0  0  0
 10 22  2  0  0  0  0
 11 25  2  0  0  0  0
 12 13  1  0  0  0  0
 12 14  1  0  0  0  0
 12 29  1  0  0  0  0
 13 15  1  0  0  0  0
 13 30  1  0  0  0  0
 14 16  1  0  0  0  0
 14 31  1  0  0  0  0
 15 17  1  1  0  0  0
 15 32  1  0  0  0  0
 16 33  1  0  0  0  0
 17 34  1  0  0  0  0
 17 35  1  0  0  0  0
 18 21  1  0  0  0  0
 18 36  1  0  0  0  0
 18 37  1  0  0  0  0
 19 23  1  0  0  0  0
 20 24  1  0  0  0  0
 21 26  1  0  0  0  0
 21 38  1  0  0  0  0
 22 27  1  0  0  0  0
 23 39  1  0  0  0  0
 23 40  1  0  0  0  0
 23 41  1  0  0  0  0
 24 42  1  0  0  0  0
 24 43  1  0  0  0  0
 24 44  1  0  0  0  0
 25 28  1  0  0  0  0
 26 45  1  0  0  0  0
 26 46  1  0  0  0  0
 26 47  1  0  0  0  0
 27 48  1  0  0  0  0
 27 49  1  0  0  0  0
 27 50  1  0  0  0  0
 28 52  1  0  0  0  0
 28 53  1  0  0  0  0
 28 54  1  0  0  0  0
M  END
> <PUBCHEM_COMPOUND_CID>
66750411

> <PUBCHEM_COMPOUND_CANONICALIZED>
1

> <PUBCHEM_CACTVS_COMPLEXITY>
580

> <PUBCHEM_CACTVS_HBOND_ACCEPTOR>
11

> <PUBCHEM_CACTVS_HBOND_DONOR>
1

> <PUBCHEM_CACTVS_ROTATABLE_BOND>
12

> <PUBCHEM_CACTVS_SUBSKEYS>
AAADceB4PABAAAAAAAAAAAAAAAAAAAAAAAAkAAAAAAAAAAAAAAAAGgQACAAACBSkwAKCCAAABggIAACQCAAAAAAAABAAAAAAAAABEAIgAAACAAAFAAAiAAHAYAwAAAAAAAAAAAAAAAAAAAAAAAAAAAAAAA==

> <PUBCHEM_IUPAC_OPENEYE_NAME>
[(2R,3R,4S,5R,6S)-3,4,5-triacetoxy-6-(2-hydroxypropylsulfanyl)tetrahydropyran-2-yl]methyl acetate

> <PUBCHEM_IUPAC_CAS_NAME>
acetic acid [(2R,3R,4S,5R,6S)-3,4,5-triacetyloxy-6-(2-hydroxypropylthio)-2-oxanyl]methyl ester

> <PUBCHEM_IUPAC_NAME_MARKUP>
[(2<I>R</I>,3<I>R</I>,4<I>S</I>,5<I>R</I>,6<I>S</I>)-3,4,5-triacetyloxy-6-(2-hydroxypropylsulfanyl)oxan-2-yl]methyl acetate

> <PUBCHEM_IUPAC_NAME>
[(2R,3R,4S,5R,6S)-3,4,5-triacetyloxy-6-(2-hydroxypropylsulfanyl)oxan-2-yl]methyl acetate

> <PUBCHEM_IUPAC_SYSTEMATIC_NAME>
[(2R,3R,4S,5R,6S)-3,4,5-triacetyloxy-6-(2-oxidanylpropylsulfanyl)oxan-2-yl]methyl ethanoate

> <PUBCHEM_IUPAC_TRADITIONAL_NAME>
acetic acid [(2R,3R,4S,5R,6S)-3,4,5-triacetoxy-6-(2-hydroxypropylthio)tetrahydropyran-2-yl]methyl ester

> <PUBCHEM_IUPAC_INCHI>
InChI=1S/C17H26O10S/c1-8(18)7-28-17-16(26-12(5)22)15(25-11(4)21)14(24-10(3)20)13(27-17)6-23-9(2)19/h8,13-18H,6-7H2,1-5H3/t8?,13-,14-,15+,16-,17+/m1/s1

> <PUBCHEM_IUPAC_INCHIKEY>
UAFDYYVOIHKPPH-DBMOWEJXSA-N

> <PUBCHEM_XLOGP3>
1.1

> <PUBCHEM_EXACT_MASS>
422.12466820

> <PUBCHEM_MOLECULAR_FORMULA>
C17H26O10S

> <PUBCHEM_MOLECULAR_WEIGHT>
422.4

> <PUBCHEM_OPENEYE_CAN_SMILES>
CC(CSC1C(C(C(C(O1)COC(=O)C)OC(=O)C)OC(=O)C)OC(=O)C)O

> <PUBCHEM_OPENEYE_ISO_SMILES>
CC(CS[C@H]1[C@@H]([C@H]([C@@H]([C@H](O1)COC(=O)C)OC(=O)C)OC(=O)C)OC(=O)C)O

> <PUBCHEM_CACTVS_TPSA>
160

> <PUBCHEM_MONOISOTOPIC_WEIGHT>
422.12466820

> <PUBCHEM_TOTAL_CHARGE>
0

> <PUBCHEM_HEAVY_ATOM_COUNT>
28

> <PUBCHEM_ATOM_DEF_STEREO_COUNT>
5

> <PUBCHEM_ATOM_UDEF_STEREO_COUNT>
1

> <PUBCHEM_BOND_DEF_STEREO_COUNT>
0

> <PUBCHEM_BOND_UDEF_STEREO_COUNT>
0

> <PUBCHEM_ISOTOPIC_ATOM_COUNT>
0

> <PUBCHEM_COMPONENT_COUNT>
1

> <PUBCHEM_CACTVS_TAUTO_COUNT>
-1

> <PUBCHEM_COORDINATE_TYPE>
1
5
255

> <PUBCHEM_BONDANNOTATIONS>
16  1  5
15  17  5
12  3  5
13  4  6
14  5  6
21  7  3

$$$$
