 
  -OEChem-10192104152D

 70 74  0     1  0  0  0  0  0999 V2000
    8.4752    1.3687    0.0000 P   0  0  3  0  0  0  0  0  0  0  0  0
    5.9405   -0.3958    0.0000 O   0  0  0  0  0  0  0  0  0  0  0  0
   11.3986    0.4620    0.0000 O   0  0  0  0  0  0  0  0  0  0  0  0
    9.2852    1.9550    0.0000 O   0  0  0  0  0  0  0  0  0  0  0  0
    7.6651    0.7823    0.0000 O   0  0  0  0  0  0  0  0  0  0  0  0
    4.6844    1.8665    0.0000 O   0  0  0  0  0  0  0  0  0  0  0  0
   10.0412   -1.1254    0.0000 O   0  0  0  0  0  0  0  0  0  0  0  0
    9.0615    0.5586    0.0000 O   0  0  0  0  0  0  0  0  0  0  0  0
    7.8888    2.1787    0.0000 O   0  0  0  0  0  0  0  0  0  0  0  0
   13.1426   -0.1138    0.0000 O   0  0  0  0  0  0  0  0  0  0  0  0
    4.6783   -1.6537    0.0000 N   0  0  0  0  0  0  0  0  0  0  0  0
   12.7854    1.5810    0.0000 N   0  0  0  0  0  0  0  0  0  0  0  0
    4.6783   -3.2632    0.0000 N   0  0  0  0  0  0  0  0  0  0  0  0
    2.8660   -1.4584    0.0000 N   0  0  0  0  0  0  0  0  0  0  0  0
   14.4318    1.0430    0.0000 N   0  0  0  0  0  0  0  0  0  0  0  0
   15.7209    2.1997    0.0000 N   0  0  0  0  0  0  0  0  0  0  0  0
    2.0000   -2.9584    0.0000 N   0  0  0  0  0  0  0  0  0  0  0  0
    2.8660   -4.4584    0.0000 N   0  0  0  0  0  0  0  0  0  0  0  0
   17.3208    4.3069    0.0000 N   0  0  0  0  0  0  0  0  0  0  0  0
   10.1980    1.5467    0.0000 C   0  0  2  0  0  0  0  0  0  0  0  0
    5.9422    0.6042    0.0000 C   0  0  1  0  0  0  0  0  0  0  0  0
   10.4043    0.5682    0.0000 C   0  0  1  0  0  0  0  0  0  0  0  0
   11.0649    2.0452    0.0000 C   0  0  0  0  0  0  0  0  0  0  0  0
    4.9917    0.9149    0.0000 C   0  0  2  0  0  0  0  0  0  0  0  0
    4.4026    0.1069    0.0000 C   0  0  0  0  0  0  0  0  0  0  0  0
    4.9889   -0.7032    0.0000 C   0  0  1  0  0  0  0  0  0  0  0  0
   11.8069    1.3748    0.0000 C   0  0  1  0  0  0  0  0  0  0  0  0
    6.7523    1.1906    0.0000 C   0  0  0  0  0  0  0  0  0  0  0  0
    9.7338   -0.1738    0.0000 C   0  0  0  0  0  0  0  0  0  0  0  0
    3.7320   -1.9584    0.0000 C   0  0  0  0  0  0  0  0  0  0  0  0
    5.2619   -2.4584    0.0000 C   0  0  0  0  0  0  0  0  0  0  0  0
   13.0961    2.5316    0.0000 C   0  0  0  0  0  0  0  0  0  0  0  0
   13.4533    0.8367    0.0000 C   0  0  0  0  0  0  0  0  0  0  0  0
    3.7320   -2.9584    0.0000 C   0  0  0  0  0  0  0  0  0  0  0  0
   14.0746    2.7378    0.0000 C   0  0  0  0  0  0  0  0  0  0  0  0
   14.7424    1.9935    0.0000 C   0  0  0  0  0  0  0  0  0  0  0  0
    2.8660   -3.4584    0.0000 C   0  0  0  0  0  0  0  0  0  0  0  0
    2.0000   -1.9584    0.0000 C   0  0  0  0  0  0  0  0  0  0  0  0
   16.0316    3.1502    0.0000 C   0  0  0  0  0  0  0  0  0  0  0  0
   17.0101    3.3564    0.0000 C   0  0  0  0  0  0  0  0  0  0  0  0
    9.7155    1.1574    0.0000 H   0  0  0  0  0  0  0  0  0  0  0  0
    6.4942    0.3218    0.0000 H   0  0  0  0  0  0  0  0  0  0  0  0
   10.6254   -0.0110    0.0000 H   0  0  0  0  0  0  0  0  0  0  0  0
   11.5264    2.4593    0.0000 H   0  0  0  0  0  0  0  0  0  0  0  0
   10.7014    2.5474    0.0000 H   0  0  0  0  0  0  0  0  0  0  0  0
    5.4309    1.3525    0.0000 H   0  0  0  0  0  0  0  0  0  0  0  0
    3.9425    0.5225    0.0000 H   0  0  0  0  0  0  0  0  0  0  0  0
    3.9411   -0.3072    0.0000 H   0  0  0  0  0  0  0  0  0  0  0  0
    5.4266   -1.1423    0.0000 H   0  0  0  0  0  0  0  0  0  0  0  0
   11.9684    1.9734    0.0000 H   0  0  0  0  0  0  0  0  0  0  0  0
    7.0999    1.7040    0.0000 H   0  0  0  0  0  0  0  0  0  0  0  0
    6.3070    1.6220    0.0000 H   0  0  0  0  0  0  0  0  0  0  0  0
    9.3530    0.3155    0.0000 H   0  0  0  0  0  0  0  0  0  0  0  0
    9.1859   -0.4639    0.0000 H   0  0  0  0  0  0  0  0  0  0  0  0
    4.0781    1.9964    0.0000 H   0  0  0  0  0  0  0  0  0  0  0  0
    5.8819   -2.4584    0.0000 H   0  0  0  0  0  0  0  0  0  0  0  0
   12.6820    2.9930    0.0000 H   0  0  0  0  0  0  0  0  0  0  0  0
    9.6256   -1.5854    0.0000 H   0  0  0  0  0  0  0  0  0  0  0  0
   14.2672    3.3271    0.0000 H   0  0  0  0  0  0  0  0  0  0  0  0
    8.8084   -0.0073    0.0000 H   0  0  0  0  0  0  0  0  0  0  0  0
    1.4631   -1.6484    0.0000 H   0  0  0  0  0  0  0  0  0  0  0  0
   16.1350    1.7382    0.0000 H   0  0  0  0  0  0  0  0  0  0  0  0
    2.3291   -4.7684    0.0000 H   0  0  0  0  0  0  0  0  0  0  0  0
    3.4030   -4.7684    0.0000 H   0  0  0  0  0  0  0  0  0  0  0  0
   16.0110    3.7699    0.0000 H   0  0  0  0  0  0  0  0  0  0  0  0
   15.4178    3.2376    0.0000 H   0  0  0  0  0  0  0  0  0  0  0  0
   17.0307    2.7368    0.0000 H   0  0  0  0  0  0  0  0  0  0  0  0
   17.6239    3.2691    0.0000 H   0  0  0  0  0  0  0  0  0  0  0  0
   17.9274    4.4348    0.0000 H   0  0  0  0  0  0  0  0  0  0  0  0
   16.9067    4.7684    0.0000 H   0  0  0  0  0  0  0  0  0  0  0  0
  1  4  1  0  0  0  0
  1  5  1  0  0  0  0
  1  8  1  0  0  0  0
  1  9  2  0  0  0  0
  2 21  1  0  0  0  0
  2 26  1  0  0  0  0
  3 22  1  0  0  0  0
  3 27  1  0  0  0  0
 20  4  1  1  0  0  0
  5 28  1  0  0  0  0
 24  6  1  6  0  0  0
  6 55  1  0  0  0  0
  7 29  1  0  0  0  0
  7 58  1  0  0  0  0
  8 60  1  0  0  0  0
 10 33  2  0  0  0  0
 26 11  1  1  0  0  0
 11 30  1  0  0  0  0
 11 31  1  0  0  0  0
 27 12  1  6  0  0  0
 12 32  1  0  0  0  0
 12 33  1  0  0  0  0
 13 31  2  0  0  0  0
 13 34  1  0  0  0  0
 14 30  2  0  0  0  0
 14 38  1  0  0  0  0
 15 33  1  0  0  0  0
 15 36  2  0  0  0  0
 16 36  1  0  0  0  0
 16 39  1  0  0  0  0
 16 62  1  0  0  0  0
 17 37  1  0  0  0  0
 17 38  2  0  0  0  0
 18 37  1  0  0  0  0
 18 63  1  0  0  0  0
 18 64  1  0  0  0  0
 19 40  1  0  0  0  0
 19 69  1  0  0  0  0
 19 70  1  0  0  0  0
 20 22  1  0  0  0  0
 20 23  1  0  0  0  0
 20 41  1  0  0  0  0
 21 24  1  0  0  0  0
 21 28  1  1  0  0  0
 21 42  1  0  0  0  0
 22 29  1  6  0  0  0
 22 43  1  0  0  0  0
 23 27  1  0  0  0  0
 23 44  1  0  0  0  0
 23 45  1  0  0  0  0
 24 25  1  0  0  0  0
 24 46  1  0  0  0  0
 25 26  1  0  0  0  0
 25 47  1  0  0  0  0
 25 48  1  0  0  0  0
 26 49  1  0  0  0  0
 27 50  1  0  0  0  0
 28 51  1  0  0  0  0
 28 52  1  0  0  0  0
 29 53  1  0  0  0  0
 29 54  1  0  0  0  0
 30 34  1  0  0  0  0
 31 56  1  0  0  0  0
 32 35  2  0  0  0  0
 32 57  1  0  0  0  0
 34 37  2  0  0  0  0
 35 36  1  0  0  0  0
 35 59  1  0  0  0  0
 38 61  1  0  0  0  0
 39 40  1  0  0  0  0
 39 65  1  0  0  0  0
 39 66  1  0  0  0  0
 40 67  1  0  0  0  0
 40 68  1  0  0  0  0
M  END
> <PUBCHEM_COMPOUND_CID>
44614301

> <PUBCHEM_COMPOUND_CANONICALIZED>
1

> <PUBCHEM_CACTVS_COMPLEXITY>
1020

> <PUBCHEM_CACTVS_HBOND_ACCEPTOR>
14

> <PUBCHEM_CACTVS_HBOND_DONOR>
6

> <PUBCHEM_CACTVS_ROTATABLE_BOND>
11

> <PUBCHEM_CACTVS_SUBSKEYS>
AAADceB7/AIAAAAAAAAAAAAAAAAAAWJEgAAsQAAAAAAAAFgB+AAAHgAQCCAACBzhlwYF8L/MFxCoQSZndICAgC0REqAJUKA4VBCBWAJAyEAeRAgPFgLDACCwMAIAAAAAAAAAAAAAAAAAAAAAAAAAAAAAAA==

> <PUBCHEM_IUPAC_OPENEYE_NAME>
[(2R,3S,5R)-5-[4-(2-aminoethylamino)-2-oxo-pyrimidin-1-yl]-2-(hydroxymethyl)tetrahydrofuran-3-yl] [(2R,3S,5R)-5-(6-aminopurin-9-yl)-3-hydroxy-tetrahydrofuran-2-yl]methyl hydrogen phosphate

> <PUBCHEM_IUPAC_CAS_NAME>
[(2R,3S,5R)-5-[4-(2-aminoethylamino)-2-oxo-1-pyrimidinyl]-2-(hydroxymethyl)-3-oxolanyl] [(2R,3S,5R)-5-(6-aminopurin-9-yl)-3-hydroxy-2-oxolanyl]methyl hydrogen phosphate

> <PUBCHEM_IUPAC_NAME_MARKUP>
[(2<I>R</I>,3<I>S</I>,5<I>R</I>)-5-[4-(2-aminoethylamino)-2-oxopyrimidin-1-yl]-2-(hydroxymethyl)oxolan-3-yl] [(2<I>R</I>,3<I>S</I>,5<I>R</I>)-5-(6-aminopurin-9-yl)-3-hydroxyoxolan-2-yl]methyl hydrogen phosphate

> <PUBCHEM_IUPAC_NAME>
[(2R,3S,5R)-5-[4-(2-aminoethylamino)-2-oxopyrimidin-1-yl]-2-(hydroxymethyl)oxolan-3-yl] [(2R,3S,5R)-5-(6-aminopurin-9-yl)-3-hydroxyoxolan-2-yl]methyl hydrogen phosphate

> <PUBCHEM_IUPAC_SYSTEMATIC_NAME>
[(2R,3S,5R)-5-(6-aminopurin-9-yl)-3-oxidanyl-oxolan-2-yl]methyl [(2R,3S,5R)-5-[4-(2-azanylethylamino)-2-oxidanylidene-pyrimidin-1-yl]-2-(hydroxymethyl)oxolan-3-yl] hydrogen phosphate

> <PUBCHEM_IUPAC_TRADITIONAL_NAME>
[(2R,3S,5R)-5-adenin-9-yl-3-hydroxy-tetrahydrofuran-2-yl]methyl [(2R,3S,5R)-5-[4-(2-aminoethylamino)-2-keto-pyrimidin-1-yl]-2-methylol-tetrahydrofuran-3-yl] hydrogen phosphate

> <PUBCHEM_IUPAC_INCHI>
InChI=1S/C21H30N9O9P/c22-2-3-24-15-1-4-29(21(33)28-15)17-6-12(13(7-31)37-17)39-40(34,35)36-8-14-11(32)5-16(38-14)30-10-27-18-19(23)25-9-26-20(18)30/h1,4,9-14,16-17,31-32H,2-3,5-8,22H2,(H,34,35)(H2,23,25,26)(H,24,28,33)/t11-,12-,13+,14+,16+,17+/m0/s1

> <PUBCHEM_IUPAC_INCHIKEY>
VBSOAUHZXNUGMT-DMCGSFDTSA-N

> <PUBCHEM_XLOGP3_AA>
-6.6

> <PUBCHEM_EXACT_MASS>
583.19041057

> <PUBCHEM_MOLECULAR_FORMULA>
C21H30N9O9P

> <PUBCHEM_MOLECULAR_WEIGHT>
583.5

> <PUBCHEM_OPENEYE_CAN_SMILES>
C1C(C(OC1N2C=NC3=C(N=CN=C32)N)COP(=O)(O)OC4CC(OC4CO)N5C=CC(=NC5=O)NCCN)O

> <PUBCHEM_OPENEYE_ISO_SMILES>
C1[C@@H]([C@H](O[C@H]1N2C=NC3=C(N=CN=C32)N)COP(=O)(O)O[C@H]4C[C@@H](O[C@@H]4CO)N5C=CC(=NC5=O)NCCN)O

> <PUBCHEM_CACTVS_TPSA>
255

> <PUBCHEM_MONOISOTOPIC_WEIGHT>
583.19041057

> <PUBCHEM_TOTAL_CHARGE>
0

> <PUBCHEM_HEAVY_ATOM_COUNT>
40

> <PUBCHEM_ATOM_DEF_STEREO_COUNT>
6

> <PUBCHEM_ATOM_UDEF_STEREO_COUNT>
0

> <PUBCHEM_BOND_DEF_STEREO_COUNT>
0

> <PUBCHEM_BOND_UDEF_STEREO_COUNT>
0

> <PUBCHEM_ISOTOPIC_ATOM_COUNT>
0

> <PUBCHEM_COMPONENT_COUNT>
1

> <PUBCHEM_CACTVS_TAUTO_COUNT>
-1

> <PUBCHEM_COORDINATE_TYPE>
1
5
255

> <PUBCHEM_BONDANNOTATIONS>
26  11  5
11  30  8
11  31  8
27  12  6
12  32  8
12  33  8
13  31  8
13  34  8
14  30  8
14  38  8
15  33  8
15  36  8
17  37  8
17  38  8
21  28  5
22  29  6
30  34  8
32  35  8
34  37  8
35  36  8
20  4  5
24  6  6

$$$$
