 
  -OEChem-10192104312D

 28 27  0     0  0  0  0  0  0999 V2000
    6.3301   -0.5490    0.0000 P   0  0  0  0  0  0  0  0  0  0  0  0
    5.8301    0.3170    0.0000 O   0  0  0  0  0  0  0  0  0  0  0  0
    7.1962   -0.0490    0.0000 O   0  0  0  0  0  0  0  0  0  0  0  0
    5.4641   -1.0490    0.0000 O   0  0  0  0  0  0  0  0  0  0  0  0
    6.8301   -1.4151    0.0000 O   0  0  0  0  0  0  0  0  0  0  0  0
    8.0622   -0.5490    0.0000 O   0  0  0  0  0  0  0  0  0  0  0  0
    4.5981   -0.5490    0.0000 O   0  0  0  0  0  0  0  0  0  0  0  0
    8.9282    0.9510    0.0000 O   0  0  0  0  0  0  0  0  0  0  0  0
    3.7320   -2.0490    0.0000 O   0  0  0  0  0  0  0  0  0  0  0  0
    6.3301    1.1830    0.0000 C   0  0  0  0  0  0  0  0  0  0  0  0
    5.8301    2.0490    0.0000 C   0  0  0  0  0  0  0  0  0  0  0  0
    8.9282   -0.0490    0.0000 C   0  0  0  0  0  0  0  0  0  0  0  0
    3.7320   -1.0490    0.0000 C   0  0  0  0  0  0  0  0  0  0  0  0
    9.7942   -0.5490    0.0000 C   0  0  0  0  0  0  0  0  0  0  0  0
    2.8660   -0.5490    0.0000 C   0  0  0  0  0  0  0  0  0  0  0  0
   10.6603   -0.0490    0.0000 C   0  0  0  0  0  0  0  0  0  0  0  0
    2.0000   -1.0490    0.0000 C   0  0  0  0  0  0  0  0  0  0  0  0
    6.8051    0.7845    0.0000 H   0  0  0  0  0  0  0  0  0  0  0  0
    6.8051    1.5815    0.0000 H   0  0  0  0  0  0  0  0  0  0  0  0
    6.3671    2.3590    0.0000 H   0  0  0  0  0  0  0  0  0  0  0  0
    5.5201    2.5860    0.0000 H   0  0  0  0  0  0  0  0  0  0  0  0
    5.2932    1.7390    0.0000 H   0  0  0  0  0  0  0  0  0  0  0  0
    9.7942   -1.1690    0.0000 H   0  0  0  0  0  0  0  0  0  0  0  0
    2.8660    0.0710    0.0000 H   0  0  0  0  0  0  0  0  0  0  0  0
   11.1972   -0.3590    0.0000 H   0  0  0  0  0  0  0  0  0  0  0  0
   10.6603    0.5710    0.0000 H   0  0  0  0  0  0  0  0  0  0  0  0
    1.4631   -0.7390    0.0000 H   0  0  0  0  0  0  0  0  0  0  0  0
    2.0000   -1.6690    0.0000 H   0  0  0  0  0  0  0  0  0  0  0  0
  1  2  1  0  0  0  0
  1  3  1  0  0  0  0
  1  4  1  0  0  0  0
  1  5  2  0  0  0  0
  2 10  1  0  0  0  0
  3  6  1  0  0  0  0
  4  7  1  0  0  0  0
  6 12  1  0  0  0  0
  7 13  1  0  0  0  0
  8 12  2  0  0  0  0
  9 13  2  0  0  0  0
 10 11  1  0  0  0  0
 10 18  1  0  0  0  0
 10 19  1  0  0  0  0
 11 20  1  0  0  0  0
 11 21  1  0  0  0  0
 11 22  1  0  0  0  0
 12 14  1  0  0  0  0
 13 15  1  0  0  0  0
 14 16  2  0  0  0  0
 14 23  1  0  0  0  0
 15 17  2  0  0  0  0
 15 24  1  0  0  0  0
 16 25  1  0  0  0  0
 16 26  1  0  0  0  0
 17 27  1  0  0  0  0
 17 28  1  0  0  0  0
M  END
> <PUBCHEM_COMPOUND_CID>
88650959

> <PUBCHEM_COMPOUND_CANONICALIZED>
1

> <PUBCHEM_CACTVS_COMPLEXITY>
321

> <PUBCHEM_CACTVS_HBOND_ACCEPTOR>
8

> <PUBCHEM_CACTVS_HBOND_DONOR>
0

> <PUBCHEM_CACTVS_ROTATABLE_BOND>
10

> <PUBCHEM_CACTVS_SUBSKEYS>
AAADccBwPAIAAAAAAAAAAAAAAAAAAAAAAAAAAAAAAAAAAAAAAAAAGgAABCAACACggAICCAAAARCIQCDSCIAAAAAAAAAIAAAAAEAABAAAAAAAAAAAAAAAAIAAAAAAAAAAAAAAAAAAAAAAAAAAAAAAAAAAAA==

> <PUBCHEM_IUPAC_OPENEYE_NAME>
[ethoxy(prop-2-enoylperoxy)phosphoryl] prop-2-eneperoxoate

> <PUBCHEM_IUPAC_CAS_NAME>
2-propeneperoxoic acid [ethoxy(1-oxoprop-2-enyldioxy)phosphoryl] ester

> <PUBCHEM_IUPAC_NAME_MARKUP>
[ethoxy(prop-2-enoylperoxy)phosphoryl] prop-2-eneperoxoate

> <PUBCHEM_IUPAC_NAME>
[ethoxy(prop-2-enoylperoxy)phosphoryl] prop-2-eneperoxoate

> <PUBCHEM_IUPAC_SYSTEMATIC_NAME>
[ethoxy(prop-2-enoylperoxy)phosphoryl] prop-2-eneperoxoate

> <PUBCHEM_IUPAC_TRADITIONAL_NAME>
peroxyacrylic acid [acryloylperoxy(ethoxy)phosphoryl] ester

> <PUBCHEM_IUPAC_INCHI>
InChI=1S/C8H11O8P/c1-4-7(9)13-15-17(11,12-6-3)16-14-8(10)5-2/h4-5H,1-2,6H2,3H3

> <PUBCHEM_IUPAC_INCHIKEY>
OYPCAVJHDYQBFW-UHFFFAOYSA-N

> <PUBCHEM_XLOGP3_AA>
1.2

> <PUBCHEM_EXACT_MASS>
266.01915430

> <PUBCHEM_MOLECULAR_FORMULA>
C8H11O8P

> <PUBCHEM_MOLECULAR_WEIGHT>
266.14

> <PUBCHEM_OPENEYE_CAN_SMILES>
CCOP(=O)(OOC(=O)C=C)OOC(=O)C=C

> <PUBCHEM_OPENEYE_ISO_SMILES>
CCOP(=O)(OOC(=O)C=C)OOC(=O)C=C

> <PUBCHEM_CACTVS_TPSA>
97.4

> <PUBCHEM_MONOISOTOPIC_WEIGHT>
266.01915430

> <PUBCHEM_TOTAL_CHARGE>
0

> <PUBCHEM_HEAVY_ATOM_COUNT>
17

> <PUBCHEM_ATOM_DEF_STEREO_COUNT>
0

> <PUBCHEM_ATOM_UDEF_STEREO_COUNT>
0

> <PUBCHEM_BOND_DEF_STEREO_COUNT>
0

> <PUBCHEM_BOND_UDEF_STEREO_COUNT>
0

> <PUBCHEM_ISOTOPIC_ATOM_COUNT>
0

> <PUBCHEM_COMPONENT_COUNT>
1

> <PUBCHEM_CACTVS_TAUTO_COUNT>
-1

> <PUBCHEM_COORDINATE_TYPE>
1
5
255

$$$$
