 
  -OEChem-10192104262D

 36 36  0     1  0  0  0  0  0999 V2000
    2.4189    1.7279    0.0000 O   0  0  0  0  0  0  0  0  0  0  0  0
    6.7226    1.7279    0.0000 O   0  0  0  0  0  0  0  0  0  0  0  0
    2.4189   -1.7279    0.0000 O   0  0  0  0  0  0  0  0  0  0  0  0
    6.7226   -1.7279    0.0000 O   0  0  0  0  0  0  0  0  0  0  0  0
    3.6959    2.8981    0.0000 O   0  0  0  0  0  0  0  0  0  0  0  0
    5.4456    2.8981    0.0000 O   0  0  0  0  0  0  0  0  0  0  0  0
    3.6959   -2.8981    0.0000 O   0  0  0  0  0  0  0  0  0  0  0  0
    5.4457   -2.8981    0.0000 O   0  0  0  0  0  0  0  0  0  0  0  0
    4.0708    1.2071    0.0000 C   0  0  3  0  0  0  0  0  0  0  0  0
    5.0708    1.2071    0.0000 C   0  0  3  0  0  0  0  0  0  0  0  0
    4.0708   -1.2071    0.0000 C   0  0  3  0  0  0  0  0  0  0  0  0
    5.0708   -1.2071    0.0000 C   0  0  3  0  0  0  0  0  0  0  0  0
    3.3636    0.5000    0.0000 C   0  0  0  0  0  0  0  0  0  0  0  0
    5.7779    0.5000    0.0000 C   0  0  0  0  0  0  0  0  0  0  0  0
    3.3636   -0.5000    0.0000 C   0  0  0  0  0  0  0  0  0  0  0  0
    5.7779   -0.5000    0.0000 C   0  0  0  0  0  0  0  0  0  0  0  0
    3.3952    1.9444    0.0000 C   0  0  0  0  0  0  0  0  0  0  0  0
    5.7463    1.9444    0.0000 C   0  0  0  0  0  0  0  0  0  0  0  0
    3.3952   -1.9444    0.0000 C   0  0  0  0  0  0  0  0  0  0  0  0
    5.7463   -1.9444    0.0000 C   0  0  0  0  0  0  0  0  0  0  0  0
    4.3205    1.7746    0.0000 H   0  0  0  0  0  0  0  0  0  0  0  0
    4.8210    1.7746    0.0000 H   0  0  0  0  0  0  0  0  0  0  0  0
    4.3205   -1.7746    0.0000 H   0  0  0  0  0  0  0  0  0  0  0  0
    4.8210   -1.7746    0.0000 H   0  0  0  0  0  0  0  0  0  0  0  0
    3.0537    1.0369    0.0000 H   0  0  0  0  0  0  0  0  0  0  0  0
    2.7648    0.3395    0.0000 H   0  0  0  0  0  0  0  0  0  0  0  0
    6.3767    0.3395    0.0000 H   0  0  0  0  0  0  0  0  0  0  0  0
    6.0879    1.0369    0.0000 H   0  0  0  0  0  0  0  0  0  0  0  0
    2.7648   -0.3395    0.0000 H   0  0  0  0  0  0  0  0  0  0  0  0
    3.0537   -1.0369    0.0000 H   0  0  0  0  0  0  0  0  0  0  0  0
    6.0879   -1.0369    0.0000 H   0  0  0  0  0  0  0  0  0  0  0  0
    6.3767   -0.3395    0.0000 H   0  0  0  0  0  0  0  0  0  0  0  0
    2.0000    2.1851    0.0000 H   0  0  0  0  0  0  0  0  0  0  0  0
    7.1415    2.1851    0.0000 H   0  0  0  0  0  0  0  0  0  0  0  0
    2.0000   -2.1851    0.0000 H   0  0  0  0  0  0  0  0  0  0  0  0
    7.1415   -2.1851    0.0000 H   0  0  0  0  0  0  0  0  0  0  0  0
  1 17  1  0  0  0  0
  1 33  1  0  0  0  0
  2 18  1  0  0  0  0
  2 34  1  0  0  0  0
  3 19  1  0  0  0  0
  3 35  1  0  0  0  0
  4 20  1  0  0  0  0
  4 36  1  0  0  0  0
  5 17  2  0  0  0  0
  6 18  2  0  0  0  0
  7 19  2  0  0  0  0
  8 20  2  0  0  0  0
  9 10  1  0  0  0  0
  9 13  1  0  0  0  0
  9 17  1  0  0  0  0
  9 21  1  0  0  0  0
 10 14  1  0  0  0  0
 10 18  1  0  0  0  0
 10 22  1  0  0  0  0
 11 12  1  0  0  0  0
 11 15  1  0  0  0  0
 11 19  1  0  0  0  0
 11 23  1  0  0  0  0
 12 16  1  0  0  0  0
 12 20  1  0  0  0  0
 12 24  1  0  0  0  0
 13 15  1  0  0  0  0
 13 25  1  0  0  0  0
 13 26  1  0  0  0  0
 14 16  1  0  0  0  0
 14 27  1  0  0  0  0
 14 28  1  0  0  0  0
 15 29  1  0  0  0  0
 15 30  1  0  0  0  0
 16 31  1  0  0  0  0
 16 32  1  0  0  0  0
M  END
> <PUBCHEM_COMPOUND_CID>
67290023

> <PUBCHEM_COMPOUND_CANONICALIZED>
1

> <PUBCHEM_CACTVS_COMPLEXITY>
349

> <PUBCHEM_CACTVS_HBOND_ACCEPTOR>
8

> <PUBCHEM_CACTVS_HBOND_DONOR>
4

> <PUBCHEM_CACTVS_ROTATABLE_BOND>
4

> <PUBCHEM_CACTVS_SUBSKEYS>
AAADceBwPAAAAAAAAAAAAAAAAAAAAAAAAAAAAAAAAAAYAAAAAAAAGgAACAAADQCAgAAACAAAAgAIAACQCAAAAAAAAAAAAAEAAAAAABIAAAAAQAAEAAAAAAHLyPCOgAAAAAAAAAAAAAAAAAAAAAAAAAAAAA==

> <PUBCHEM_IUPAC_OPENEYE_NAME>
cyclooctane-1,2,5,6-tetracarboxylic acid

> <PUBCHEM_IUPAC_CAS_NAME>
cyclooctane-1,2,5,6-tetracarboxylic acid

> <PUBCHEM_IUPAC_NAME_MARKUP>
cyclooctane-1,2,5,6-tetracarboxylic acid

> <PUBCHEM_IUPAC_NAME>
cyclooctane-1,2,5,6-tetracarboxylic acid

> <PUBCHEM_IUPAC_SYSTEMATIC_NAME>
cyclooctane-1,2,5,6-tetracarboxylic acid

> <PUBCHEM_IUPAC_TRADITIONAL_NAME>
cyclooctane-1,2,5,6-tetracarboxylic acid

> <PUBCHEM_IUPAC_INCHI>
InChI=1S/C12H16O8/c13-9(14)5-1-2-6(10(15)16)8(12(19)20)4-3-7(5)11(17)18/h5-8H,1-4H2,(H,13,14)(H,15,16)(H,17,18)(H,19,20)

> <PUBCHEM_IUPAC_INCHIKEY>
XHLQDJFBKOSZLB-UHFFFAOYSA-N

> <PUBCHEM_XLOGP3_AA>
-0.4

> <PUBCHEM_EXACT_MASS>
288.08451746

> <PUBCHEM_MOLECULAR_FORMULA>
C12H16O8

> <PUBCHEM_MOLECULAR_WEIGHT>
288.25

> <PUBCHEM_OPENEYE_CAN_SMILES>
C1CC(C(CCC(C1C(=O)O)C(=O)O)C(=O)O)C(=O)O

> <PUBCHEM_OPENEYE_ISO_SMILES>
C1CC(C(CCC(C1C(=O)O)C(=O)O)C(=O)O)C(=O)O

> <PUBCHEM_CACTVS_TPSA>
149

> <PUBCHEM_MONOISOTOPIC_WEIGHT>
288.08451746

> <PUBCHEM_TOTAL_CHARGE>
0

> <PUBCHEM_HEAVY_ATOM_COUNT>
20

> <PUBCHEM_ATOM_DEF_STEREO_COUNT>
0

> <PUBCHEM_ATOM_UDEF_STEREO_COUNT>
4

> <PUBCHEM_BOND_DEF_STEREO_COUNT>
0

> <PUBCHEM_BOND_UDEF_STEREO_COUNT>
0

> <PUBCHEM_ISOTOPIC_ATOM_COUNT>
0

> <PUBCHEM_COMPONENT_COUNT>
1

> <PUBCHEM_CACTVS_TAUTO_COUNT>
-1

> <PUBCHEM_COORDINATE_TYPE>
1
5
255

> <PUBCHEM_BONDANNOTATIONS>
10  18  3
11  19  3
12  20  3
9  17  3

$$$$
