 
  -OEChem-10192103332D

 90 93  0     1  0  0  0  0  0999 V2000
    6.8671   -4.2500    0.0000 O   0  0  0  0  0  0  0  0  0  0  0  0
    5.1350    4.7500    0.0000 O   0  0  0  0  0  0  0  0  0  0  0  0
    8.5991   -4.2500    0.0000 O   0  0  0  0  0  0  0  0  0  0  0  0
    6.8671   -7.2500    0.0000 O   0  0  0  0  0  0  0  0  0  0  0  0
    5.1350   -6.2500    0.0000 O   0  0  0  0  0  0  0  0  0  0  0  0
    8.5991   -6.2500    0.0000 O   0  0  0  0  0  0  0  0  0  0  0  0
    4.2690    7.2500    0.0000 O   0  0  0  0  0  0  0  0  0  0  0  0
    2.5369    6.2500    0.0000 O   0  0  0  0  0  0  0  0  0  0  0  0
    4.2690    3.2500    0.0000 O   0  0  0  0  0  0  0  0  0  0  0  0
    2.5369    4.2500    0.0000 O   0  0  0  0  0  0  0  0  0  0  0  0
    4.2690   -4.7500    0.0000 O   0  0  0  0  0  0  0  0  0  0  0  0
    6.0010    7.2500    0.0000 O   0  0  0  0  0  0  0  0  0  0  0  0
    6.8671   -1.2500    0.0000 O   0  0  0  0  0  0  0  0  0  0  0  0
   10.3312   -1.2500    0.0000 O   0  0  0  0  0  0  0  0  0  0  0  0
    9.4651    0.2500    0.0000 O   0  0  0  0  0  0  0  0  0  0  0  0
    6.8671   -6.2500    0.0000 C   0  0  1  0  0  0  0  0  0  0  0  0
    6.0010   -5.7500    0.0000 C   0  0  1  0  0  0  0  0  0  0  0  0
    7.7331   -5.7500    0.0000 C   0  0  2  0  0  0  0  0  0  0  0  0
    6.0010   -4.7500    0.0000 C   0  0  1  0  0  0  0  0  0  0  0  0
    4.2690    6.2500    0.0000 C   0  0  1  0  0  0  0  0  0  0  0  0
    3.4030    5.7500    0.0000 C   0  0  1  0  0  0  0  0  0  0  0  0
    7.7331   -4.7500    0.0000 C   0  0  1  0  0  0  0  0  0  0  0  0
    5.1350    5.7500    0.0000 C   0  0  1  0  0  0  0  0  0  0  0  0
    3.4030    4.7500    0.0000 C   0  0  2  0  0  0  0  0  0  0  0  0
    4.2690    4.2500    0.0000 C   0  0  1  0  0  0  0  0  0  0  0  0
    5.1350   -4.2500    0.0000 C   0  0  0  0  0  0  0  0  0  0  0  0
    6.0010    6.2500    0.0000 C   0  0  0  0  0  0  0  0  0  0  0  0
    8.5991   -3.2500    0.0000 C   0  0  0  0  0  0  0  0  0  0  0  0
    9.4651   -2.7500    0.0000 C   0  0  0  0  0  0  0  0  0  0  0  0
    5.1350    2.7500    0.0000 C   0  0  0  0  0  0  0  0  0  0  0  0
    7.7331   -2.7500    0.0000 C   0  0  0  0  0  0  0  0  0  0  0  0
    9.4651   -1.7500    0.0000 C   0  0  0  0  0  0  0  0  0  0  0  0
   10.3312   -3.2500    0.0000 C   0  0  0  0  0  0  0  0  0  0  0  0
    7.7331   -1.7500    0.0000 C   0  0  0  0  0  0  0  0  0  0  0  0
    8.5991   -1.2500    0.0000 C   0  0  0  0  0  0  0  0  0  0  0  0
    6.0010    3.2500    0.0000 C   0  0  0  0  0  0  0  0  0  0  0  0
    5.1350    1.7500    0.0000 C   0  0  0  0  0  0  0  0  0  0  0  0
    6.8671    2.7500    0.0000 C   0  0  0  0  0  0  0  0  0  0  0  0
    6.0010    1.2500    0.0000 C   0  0  0  0  0  0  0  0  0  0  0  0
    6.8671    1.7500    0.0000 C   0  0  0  0  0  0  0  0  0  0  0  0
   11.1972   -2.7500    0.0000 C   0  0  0  0  0  0  0  0  0  0  0  0
    8.5991   -0.2500    0.0000 C   0  0  0  0  0  0  0  0  0  0  0  0
    7.7331    1.2500    0.0000 C   0  0  0  0  0  0  0  0  0  0  0  0
    7.7331    0.2500    0.0000 C   0  0  0  0  0  0  0  0  0  0  0  0
   12.0632   -3.2500    0.0000 C   0  0  0  0  0  0  0  0  0  0  0  0
    6.0010   -1.7500    0.0000 C   0  0  0  0  0  0  0  0  0  0  0  0
   12.9292   -2.7500    0.0000 C   0  0  0  0  0  0  0  0  0  0  0  0
   12.0632   -4.2500    0.0000 C   0  0  0  0  0  0  0  0  0  0  0  0
    6.3301   -6.5600    0.0000 H   0  0  0  0  0  0  0  0  0  0  0  0
    6.0010   -6.3700    0.0000 H   0  0  0  0  0  0  0  0  0  0  0  0
    7.7331   -6.3700    0.0000 H   0  0  0  0  0  0  0  0  0  0  0  0
    6.0010   -4.1300    0.0000 H   0  0  0  0  0  0  0  0  0  0  0  0
    4.8059    6.5600    0.0000 H   0  0  0  0  0  0  0  0  0  0  0  0
    3.4030    6.3700    0.0000 H   0  0  0  0  0  0  0  0  0  0  0  0
    8.2700   -5.0600    0.0000 H   0  0  0  0  0  0  0  0  0  0  0  0
    5.6720    5.4400    0.0000 H   0  0  0  0  0  0  0  0  0  0  0  0
    2.8660    5.0600    0.0000 H   0  0  0  0  0  0  0  0  0  0  0  0
    3.7320    3.9400    0.0000 H   0  0  0  0  0  0  0  0  0  0  0  0
    5.5335   -3.7750    0.0000 H   0  0  0  0  0  0  0  0  0  0  0  0
    4.7365   -3.7750    0.0000 H   0  0  0  0  0  0  0  0  0  0  0  0
    6.2131    5.6674    0.0000 H   0  0  0  0  0  0  0  0  0  0  0  0
    6.6116    6.3577    0.0000 H   0  0  0  0  0  0  0  0  0  0  0  0
    6.3301   -7.5600    0.0000 H   0  0  0  0  0  0  0  0  0  0  0  0
    5.1350   -6.8700    0.0000 H   0  0  0  0  0  0  0  0  0  0  0  0
    8.5991   -6.8700    0.0000 H   0  0  0  0  0  0  0  0  0  0  0  0
    3.7320    7.5600    0.0000 H   0  0  0  0  0  0  0  0  0  0  0  0
    2.5369    6.8700    0.0000 H   0  0  0  0  0  0  0  0  0  0  0  0
    2.0000    4.5600    0.0000 H   0  0  0  0  0  0  0  0  0  0  0  0
    3.7320   -4.4400    0.0000 H   0  0  0  0  0  0  0  0  0  0  0  0
    6.5380    7.5600    0.0000 H   0  0  0  0  0  0  0  0  0  0  0  0
    7.1962   -3.0600    0.0000 H   0  0  0  0  0  0  0  0  0  0  0  0
    9.9326   -3.7250    0.0000 H   0  0  0  0  0  0  0  0  0  0  0  0
   10.7297   -3.7250    0.0000 H   0  0  0  0  0  0  0  0  0  0  0  0
    6.0010    3.8700    0.0000 H   0  0  0  0  0  0  0  0  0  0  0  0
    4.5981    1.4400    0.0000 H   0  0  0  0  0  0  0  0  0  0  0  0
    7.4040    3.0600    0.0000 H   0  0  0  0  0  0  0  0  0  0  0  0
    6.0010    0.6300    0.0000 H   0  0  0  0  0  0  0  0  0  0  0  0
   11.1972   -2.1300    0.0000 H   0  0  0  0  0  0  0  0  0  0  0  0
    8.2700    1.5600    0.0000 H   0  0  0  0  0  0  0  0  0  0  0  0
   10.3312   -0.6300    0.0000 H   0  0  0  0  0  0  0  0  0  0  0  0
    7.1962   -0.0600    0.0000 H   0  0  0  0  0  0  0  0  0  0  0  0
    5.6910   -1.2131    0.0000 H   0  0  0  0  0  0  0  0  0  0  0  0
    5.4641   -2.0600    0.0000 H   0  0  0  0  0  0  0  0  0  0  0  0
    6.3110   -2.2869    0.0000 H   0  0  0  0  0  0  0  0  0  0  0  0
   13.2392   -3.2869    0.0000 H   0  0  0  0  0  0  0  0  0  0  0  0
   13.4662   -2.4400    0.0000 H   0  0  0  0  0  0  0  0  0  0  0  0
   12.6192   -2.2131    0.0000 H   0  0  0  0  0  0  0  0  0  0  0  0
   11.4432   -4.2500    0.0000 H   0  0  0  0  0  0  0  0  0  0  0  0
   12.0632   -4.8700    0.0000 H   0  0  0  0  0  0  0  0  0  0  0  0
   12.6832   -4.2500    0.0000 H   0  0  0  0  0  0  0  0  0  0  0  0
  1 19  1  0  0  0  0
  1 22  1  0  0  0  0
  2 23  1  0  0  0  0
  2 25  1  0  0  0  0
 22  3  1  1  0  0  0
  3 28  1  0  0  0  0
 16  4  1  1  0  0  0
  4 63  1  0  0  0  0
 17  5  1  6  0  0  0
  5 64  1  0  0  0  0
 18  6  1  6  0  0  0
  6 65  1  0  0  0  0
 20  7  1  6  0  0  0
  7 66  1  0  0  0  0
 21  8  1  1  0  0  0
  8 67  1  0  0  0  0
 25  9  1  1  0  0  0
  9 30  1  0  0  0  0
 24 10  1  6  0  0  0
 10 68  1  0  0  0  0
 11 26  1  0  0  0  0
 11 69  1  0  0  0  0
 12 27  1  0  0  0  0
 12 70  1  0  0  0  0
 13 34  1  0  0  0  0
 13 46  1  0  0  0  0
 14 32  1  0  0  0  0
 14 80  1  0  0  0  0
 15 42  2  0  0  0  0
 16 17  1  0  0  0  0
 16 18  1  0  0  0  0
 16 49  1  0  0  0  0
 17 19  1  0  0  0  0
 17 50  1  0  0  0  0
 18 22  1  0  0  0  0
 18 51  1  0  0  0  0
 19 26  1  1  0  0  0
 19 52  1  0  0  0  0
 20 21  1  0  0  0  0
 20 23  1  0  0  0  0
 20 53  1  0  0  0  0
 21 24  1  0  0  0  0
 21 54  1  0  0  0  0
 22 55  1  0  0  0  0
 23 27  1  1  0  0  0
 23 56  1  0  0  0  0
 24 25  1  0  0  0  0
 24 57  1  0  0  0  0
 25 58  1  0  0  0  0
 26 59  1  0  0  0  0
 26 60  1  0  0  0  0
 27 61  1  0  0  0  0
 27 62  1  0  0  0  0
 28 29  1  0  0  0  0
 28 31  2  0  0  0  0
 29 32  2  0  0  0  0
 29 33  1  0  0  0  0
 30 36  2  0  0  0  0
 30 37  1  0  0  0  0
 31 34  1  0  0  0  0
 31 71  1  0  0  0  0
 32 35  1  0  0  0  0
 33 41  1  0  0  0  0
 33 72  1  0  0  0  0
 33 73  1  0  0  0  0
 34 35  2  0  0  0  0
 35 42  1  0  0  0  0
 36 38  1  0  0  0  0
 36 74  1  0  0  0  0
 37 39  2  0  0  0  0
 37 75  1  0  0  0  0
 38 40  2  0  0  0  0
 38 76  1  0  0  0  0
 39 40  1  0  0  0  0
 39 77  1  0  0  0  0
 40 43  1  0  0  0  0
 41 45  2  0  0  0  0
 41 78  1  0  0  0  0
 42 44  1  0  0  0  0
 43 44  2  0  0  0  0
 43 79  1  0  0  0  0
 44 81  1  0  0  0  0
 45 47  1  0  0  0  0
 45 48  1  0  0  0  0
 46 82  1  0  0  0  0
 46 83  1  0  0  0  0
 46 84  1  0  0  0  0
 47 85  1  0  0  0  0
 47 86  1  0  0  0  0
 47 87  1  0  0  0  0
 48 88  1  0  0  0  0
 48 89  1  0  0  0  0
 48 90  1  0  0  0  0
M  END
> <PUBCHEM_COMPOUND_CID>
16091686

> <PUBCHEM_COMPOUND_CANONICALIZED>
1

> <PUBCHEM_CACTVS_COMPLEXITY>
1080

> <PUBCHEM_CACTVS_HBOND_ACCEPTOR>
15

> <PUBCHEM_CACTVS_HBOND_DONOR>
9

> <PUBCHEM_CACTVS_ROTATABLE_BOND>
12

> <PUBCHEM_CACTVS_SUBSKEYS>
AAADcfB8PAAAAAAAAAAAAAAAAAAAAAAAAAA0aIEAAAAAAAABQAAAGgAACAAADBSwmAMyDoAABgCIAqBSAAACCAAkIAAIiAEGCMgdNzaGNRqieWCl4BUPuYfI7OzOIAACCAAIAABAAAQQABAAAAAAAAAAAA==

> <PUBCHEM_IUPAC_OPENEYE_NAME>
(E)-1-[2-hydroxy-6-methoxy-3-(3-methylbut-2-enyl)-4-[(2S,3R,4S,5S,6R)-3,4,5-trihydroxy-6-(hydroxymethyl)tetrahydropyran-2-yl]oxy-phenyl]-3-[4-[(2S,3R,4S,5S,6R)-3,4,5-trihydroxy-6-(hydroxymethyl)tetrahydropyran-2-yl]oxyphenyl]prop-2-en-1-one

> <PUBCHEM_IUPAC_CAS_NAME>
(E)-1-[2-hydroxy-6-methoxy-3-(3-methylbut-2-enyl)-4-[[(2S,3R,4S,5S,6R)-3,4,5-trihydroxy-6-(hydroxymethyl)-2-oxanyl]oxy]phenyl]-3-[4-[[(2S,3R,4S,5S,6R)-3,4,5-trihydroxy-6-(hydroxymethyl)-2-oxanyl]oxy]phenyl]-2-propen-1-one

> <PUBCHEM_IUPAC_NAME_MARKUP>
(<I>E</I>)-1-[2-hydroxy-6-methoxy-3-(3-methylbut-2-enyl)-4-[(2<I>S</I>,3<I>R</I>,4<I>S</I>,5<I>S</I>,6<I>R</I>)-3,4,5-trihydroxy-6-(hydroxymethyl)oxan-2-yl]oxyphenyl]-3-[4-[(2<I>S</I>,3<I>R</I>,4<I>S</I>,5<I>S</I>,6<I>R</I>)-3,4,5-trihydroxy-6-(hydroxymethyl)oxan-2-yl]oxyphenyl]prop-2-en-1-one

> <PUBCHEM_IUPAC_NAME>
(E)-1-[2-hydroxy-6-methoxy-3-(3-methylbut-2-enyl)-4-[(2S,3R,4S,5S,6R)-3,4,5-trihydroxy-6-(hydroxymethyl)oxan-2-yl]oxyphenyl]-3-[4-[(2S,3R,4S,5S,6R)-3,4,5-trihydroxy-6-(hydroxymethyl)oxan-2-yl]oxyphenyl]prop-2-en-1-one

> <PUBCHEM_IUPAC_SYSTEMATIC_NAME>
(E)-1-[4-[(2S,3R,4S,5S,6R)-6-(hydroxymethyl)-3,4,5-tris(oxidanyl)oxan-2-yl]oxy-6-methoxy-3-(3-methylbut-2-enyl)-2-oxidanyl-phenyl]-3-[4-[(2S,3R,4S,5S,6R)-6-(hydroxymethyl)-3,4,5-tris(oxidanyl)oxan-2-yl]oxyphenyl]prop-2-en-1-one

> <PUBCHEM_IUPAC_TRADITIONAL_NAME>
(E)-1-[2-hydroxy-6-methoxy-3-(3-methylbut-2-enyl)-4-[(2S,3R,4S,5S,6R)-3,4,5-trihydroxy-6-methylol-tetrahydropyran-2-yl]oxy-phenyl]-3-[4-[(2S,3R,4S,5S,6R)-3,4,5-trihydroxy-6-methylol-tetrahydropyran-2-yl]oxyphenyl]prop-2-en-1-one

> <PUBCHEM_IUPAC_INCHI>
InChI=1S/C33H42O15/c1-15(2)4-10-18-20(46-33-31(43)29(41)27(39)23(14-35)48-33)12-21(44-3)24(25(18)37)19(36)11-7-16-5-8-17(9-6-16)45-32-30(42)28(40)26(38)22(13-34)47-32/h4-9,11-12,22-23,26-35,37-43H,10,13-14H2,1-3H3/b11-7+/t22-,23-,26-,27-,28+,29+,30-,31-,32-,33-/m1/s1

> <PUBCHEM_IUPAC_INCHIKEY>
IGMINBWEODEWHY-INQOZQBKSA-N

> <PUBCHEM_XLOGP3_AA>
1.5

> <PUBCHEM_EXACT_MASS>
678.25237063

> <PUBCHEM_MOLECULAR_FORMULA>
C33H42O15

> <PUBCHEM_MOLECULAR_WEIGHT>
678.7

> <PUBCHEM_OPENEYE_CAN_SMILES>
CC(=CCC1=C(C(=C(C=C1OC2C(C(C(C(O2)CO)O)O)O)OC)C(=O)C=CC3=CC=C(C=C3)OC4C(C(C(C(O4)CO)O)O)O)O)C

> <PUBCHEM_OPENEYE_ISO_SMILES>
CC(=CCC1=C(C(=C(C=C1O[C@H]2[C@@H]([C@H]([C@@H]([C@H](O2)CO)O)O)O)OC)C(=O)/C=C/C3=CC=C(C=C3)O[C@H]4[C@@H]([C@H]([C@@H]([C@H](O4)CO)O)O)O)O)C

> <PUBCHEM_CACTVS_TPSA>
245

> <PUBCHEM_MONOISOTOPIC_WEIGHT>
678.25237063

> <PUBCHEM_TOTAL_CHARGE>
0

> <PUBCHEM_HEAVY_ATOM_COUNT>
48

> <PUBCHEM_ATOM_DEF_STEREO_COUNT>
10

> <PUBCHEM_ATOM_UDEF_STEREO_COUNT>
0

> <PUBCHEM_BOND_DEF_STEREO_COUNT>
1

> <PUBCHEM_BOND_UDEF_STEREO_COUNT>
0

> <PUBCHEM_ISOTOPIC_ATOM_COUNT>
0

> <PUBCHEM_COMPONENT_COUNT>
1

> <PUBCHEM_CACTVS_TAUTO_COUNT>
-1

> <PUBCHEM_COORDINATE_TYPE>
1
5
255

> <PUBCHEM_BONDANNOTATIONS>
24  10  6
19  26  5
23  27  5
28  29  8
28  31  8
29  32  8
22  3  5
30  36  8
30  37  8
31  34  8
32  35  8
34  35  8
36  38  8
37  39  8
38  40  8
39  40  8
16  4  5
17  5  6
18  6  6
20  7  6
21  8  5
25  9  5

$$$$
