 
  -OEChem-10192103262D

 68 71  0     1  0  0  0  0  0999 V2000
   15.0146   -0.2961    0.0000 O   0  0  0  0  0  0  0  0  0  0  0  0
   11.5263    0.5950    0.0000 O   0  0  0  0  0  0  0  0  0  0  0  0
   12.3923   -0.9050    0.0000 O   0  0  0  0  0  0  0  0  0  0  0  0
   10.6603   -0.9050    0.0000 O   0  0  0  0  0  0  0  0  0  0  0  0
   12.3923   -2.9050    0.0000 O   0  0  0  0  0  0  0  0  0  0  0  0
   11.5263    3.5950    0.0000 O   0  0  0  0  0  0  0  0  0  0  0  0
   10.6603   -3.9050    0.0000 O   0  0  0  0  0  0  0  0  0  0  0  0
    8.9282   -2.9050    0.0000 O   0  0  0  0  0  0  0  0  0  0  0  0
   13.2583    3.5950    0.0000 O   0  0  0  0  0  0  0  0  0  0  0  0
    8.0622   -1.4050    0.0000 O   0  0  0  0  0  0  0  0  0  0  0  0
    7.1962    0.0950    0.0000 O   0  0  0  0  0  0  0  0  0  0  0  0
    2.0000   -0.9050    0.0000 O   0  0  0  0  0  0  0  0  0  0  0  0
    2.0000   -2.9050    0.0000 O   0  0  0  0  0  0  0  0  0  0  0  0
   13.2583    0.5950    0.0000 C   0  0  2  0  0  0  0  0  0  0  0  0
   14.2045    0.2903    0.0000 C   0  0  2  0  0  0  0  0  0  0  0  0
   13.2583    1.5950    0.0000 C   0  0  2  0  0  0  0  0  0  0  0  0
   14.7882    1.0950    0.0000 C   0  0  0  0  0  0  0  0  0  0  0  0
   14.2045    1.8997    0.0000 C   0  0  0  0  0  0  0  0  0  0  0  0
   12.3923    0.0950    0.0000 C   0  0  1  0  0  0  0  0  0  0  0  0
   12.3923    2.0950    0.0000 C   0  0  0  0  0  0  0  0  0  0  0  0
   13.8972   -0.6613    0.0000 C   0  0  0  0  0  0  0  0  0  0  0  0
   11.5263    1.5950    0.0000 C   0  0  0  0  0  0  0  0  0  0  0  0
   11.5263   -1.4050    0.0000 C   0  0  2  0  0  0  0  0  0  0  0  0
   11.5263   -2.4050    0.0000 C   0  0  1  0  0  0  0  0  0  0  0  0
   12.3923    3.0950    0.0000 C   0  0  0  0  0  0  0  0  0  0  0  0
   10.6603   -2.9050    0.0000 C   0  0  2  0  0  0  0  0  0  0  0  0
    9.7942   -2.4050    0.0000 C   0  0  1  0  0  0  0  0  0  0  0  0
    9.7942   -1.4050    0.0000 C   0  0  1  0  0  0  0  0  0  0  0  0
    8.9282   -0.9050    0.0000 C   0  0  0  0  0  0  0  0  0  0  0  0
    7.1962   -0.9050    0.0000 C   0  0  0  0  0  0  0  0  0  0  0  0
    6.3301   -1.4050    0.0000 C   0  0  0  0  0  0  0  0  0  0  0  0
    5.4641   -0.9050    0.0000 C   0  0  0  0  0  0  0  0  0  0  0  0
    4.5981   -1.4050    0.0000 C   0  0  0  0  0  0  0  0  0  0  0  0
    3.7320   -0.9050    0.0000 C   0  0  0  0  0  0  0  0  0  0  0  0
    4.5981   -2.4050    0.0000 C   0  0  0  0  0  0  0  0  0  0  0  0
    2.8660   -1.4050    0.0000 C   0  0  0  0  0  0  0  0  0  0  0  0
    3.7320   -2.9050    0.0000 C   0  0  0  0  0  0  0  0  0  0  0  0
    2.8660   -2.4050    0.0000 C   0  0  0  0  0  0  0  0  0  0  0  0
   13.3483   -0.2502    0.0000 H   0  0  0  0  0  0  0  0  0  0  0  0
   13.3483    2.4402    0.0000 H   0  0  0  0  0  0  0  0  0  0  0  0
   15.2490    0.6803    0.0000 H   0  0  0  0  0  0  0  0  0  0  0  0
   15.2490    1.5097    0.0000 H   0  0  0  0  0  0  0  0  0  0  0  0
   14.7419    2.2090    0.0000 H   0  0  0  0  0  0  0  0  0  0  0  0
   13.9535    2.4666    0.0000 H   0  0  0  0  0  0  0  0  0  0  0  0
   12.9292   -0.2150    0.0000 H   0  0  0  0  0  0  0  0  0  0  0  0
   13.3072   -0.4708    0.0000 H   0  0  0  0  0  0  0  0  0  0  0  0
   13.7066   -1.2513    0.0000 H   0  0  0  0  0  0  0  0  0  0  0  0
   14.4872   -0.8519    0.0000 H   0  0  0  0  0  0  0  0  0  0  0  0
   15.5805   -0.0430    0.0000 H   0  0  0  0  0  0  0  0  0  0  0  0
   10.9893    1.9050    0.0000 H   0  0  0  0  0  0  0  0  0  0  0  0
   11.5263   -0.7850    0.0000 H   0  0  0  0  0  0  0  0  0  0  0  0
   11.5263   -3.0250    0.0000 H   0  0  0  0  0  0  0  0  0  0  0  0
   10.1233   -3.2150    0.0000 H   0  0  0  0  0  0  0  0  0  0  0  0
    9.2573   -2.0950    0.0000 H   0  0  0  0  0  0  0  0  0  0  0  0
    9.7942   -0.7850    0.0000 H   0  0  0  0  0  0  0  0  0  0  0  0
    9.3267   -0.4301    0.0000 H   0  0  0  0  0  0  0  0  0  0  0  0
    8.5297   -0.4301    0.0000 H   0  0  0  0  0  0  0  0  0  0  0  0
   12.3923   -3.5250    0.0000 H   0  0  0  0  0  0  0  0  0  0  0  0
   11.5263    4.2150    0.0000 H   0  0  0  0  0  0  0  0  0  0  0  0
   10.1233   -4.2150    0.0000 H   0  0  0  0  0  0  0  0  0  0  0  0
    8.9282   -3.5250    0.0000 H   0  0  0  0  0  0  0  0  0  0  0  0
    6.3301   -2.0250    0.0000 H   0  0  0  0  0  0  0  0  0  0  0  0
    5.4641   -0.2850    0.0000 H   0  0  0  0  0  0  0  0  0  0  0  0
    3.7320   -0.2850    0.0000 H   0  0  0  0  0  0  0  0  0  0  0  0
    5.1350   -2.7150    0.0000 H   0  0  0  0  0  0  0  0  0  0  0  0
    3.7320   -3.5250    0.0000 H   0  0  0  0  0  0  0  0  0  0  0  0
    2.0000   -0.2850    0.0000 H   0  0  0  0  0  0  0  0  0  0  0  0
    2.0000   -3.5250    0.0000 H   0  0  0  0  0  0  0  0  0  0  0  0
 15  1  1  6  0  0  0
  1 49  1  0  0  0  0
  2 19  1  0  0  0  0
  2 22  1  0  0  0  0
 19  3  1  6  0  0  0
 23  3  1  1  0  0  0
  4 23  1  0  0  0  0
  4 28  1  0  0  0  0
 24  5  1  6  0  0  0
  5 58  1  0  0  0  0
  6 25  1  0  0  0  0
  6 59  1  0  0  0  0
 26  7  1  1  0  0  0
  7 60  1  0  0  0  0
 27  8  1  6  0  0  0
  8 61  1  0  0  0  0
  9 25  2  0  0  0  0
 10 29  1  0  0  0  0
 10 30  1  0  0  0  0
 11 30  2  0  0  0  0
 12 36  1  0  0  0  0
 12 67  1  0  0  0  0
 13 38  1  0  0  0  0
 13 68  1  0  0  0  0
 14 15  1  0  0  0  0
 14 16  1  0  0  0  0
 14 19  1  0  0  0  0
 14 39  1  6  0  0  0
 15 17  1  0  0  0  0
 15 21  1  0  0  0  0
 16 18  1  0  0  0  0
 16 20  1  0  0  0  0
 16 40  1  6  0  0  0
 17 18  1  0  0  0  0
 17 41  1  0  0  0  0
 17 42  1  0  0  0  0
 18 43  1  0  0  0  0
 18 44  1  0  0  0  0
 19 45  1  0  0  0  0
 20 22  2  0  0  0  0
 20 25  1  0  0  0  0
 21 46  1  0  0  0  0
 21 47  1  0  0  0  0
 21 48  1  0  0  0  0
 22 50  1  0  0  0  0
 23 24  1  0  0  0  0
 23 51  1  0  0  0  0
 24 26  1  0  0  0  0
 24 52  1  0  0  0  0
 26 27  1  0  0  0  0
 26 53  1  0  0  0  0
 27 28  1  0  0  0  0
 27 54  1  0  0  0  0
 28 29  1  1  0  0  0
 28 55  1  0  0  0  0
 29 56  1  0  0  0  0
 29 57  1  0  0  0  0
 30 31  1  0  0  0  0
 31 32  2  0  0  0  0
 31 62  1  0  0  0  0
 32 33  1  0  0  0  0
 32 63  1  0  0  0  0
 33 34  2  0  0  0  0
 33 35  1  0  0  0  0
 34 36  1  0  0  0  0
 34 64  1  0  0  0  0
 35 37  2  0  0  0  0
 35 65  1  0  0  0  0
 36 38  2  0  0  0  0
 37 38  1  0  0  0  0
 37 66  1  0  0  0  0
M  END
> <PUBCHEM_COMPOUND_CID>
23844050

> <PUBCHEM_COMPOUND_CANONICALIZED>
1

> <PUBCHEM_CACTVS_COMPLEXITY>
936

> <PUBCHEM_CACTVS_HBOND_ACCEPTOR>
13

> <PUBCHEM_CACTVS_HBOND_DONOR>
7

> <PUBCHEM_CACTVS_ROTATABLE_BOND>
8

> <PUBCHEM_CACTVS_SUBSKEYS>
AAADceB4PAAAAAAAAAAAAAAAAAAAAYAAAAA0QIAAAAAAAEABAAAAGgAACAAADVSwmAMyDoAABgCIAiDSCAACCAAgIAAIiAEGiMgZNjKCMRKicAElwBEPuYfI7PzOoAABAAAAQABAAAIAAACAAYAADAAAAA==

> <PUBCHEM_IUPAC_OPENEYE_NAME>
(1S,4aS,7S,7aS)-1-[(2S,3R,4S,5S,6R)-6-[[(E)-3-(3,4-dihydroxyphenyl)prop-2-enoyl]oxymethyl]-3,4,5-trihydroxy-tetrahydropyran-2-yl]oxy-7-hydroxy-7-methyl-4a,5,6,7a-tetrahydro-1H-cyclopenta[c]pyran-4-carboxylic acid

> <PUBCHEM_IUPAC_CAS_NAME>
(1S,4aS,7S,7aS)-1-[[(2S,3R,4S,5S,6R)-6-[[(E)-3-(3,4-dihydroxyphenyl)-1-oxoprop-2-enoxy]methyl]-3,4,5-trihydroxy-2-oxanyl]oxy]-7-hydroxy-7-methyl-4a,5,6,7a-tetrahydro-1H-cyclopenta[c]pyran-4-carboxylic acid

> <PUBCHEM_IUPAC_NAME_MARKUP>
(1<I>S</I>,4<I>a</I><I>S</I>,7<I>S</I>,7<I>a</I><I>S</I>)-1-[(2<I>S</I>,3<I>R</I>,4<I>S</I>,5<I>S</I>,6<I>R</I>)-6-[[(<I>E</I>)-3-(3,4-dihydroxyphenyl)prop-2-enoyl]oxymethyl]-3,4,5-trihydroxyoxan-2-yl]oxy-7-hydroxy-7-methyl-4<I>a</I>,5,6,7<I>a</I>-tetrahydro-1<I>H</I>-cyclopenta[c]pyran-4-carboxylic acid

> <PUBCHEM_IUPAC_NAME>
(1S,4aS,7S,7aS)-1-[(2S,3R,4S,5S,6R)-6-[[(E)-3-(3,4-dihydroxyphenyl)prop-2-enoyl]oxymethyl]-3,4,5-trihydroxyoxan-2-yl]oxy-7-hydroxy-7-methyl-4a,5,6,7a-tetrahydro-1H-cyclopenta[c]pyran-4-carboxylic acid

> <PUBCHEM_IUPAC_SYSTEMATIC_NAME>
(1S,4aS,7S,7aS)-1-[(2S,3R,4S,5S,6R)-6-[[(E)-3-[3,4-bis(oxidanyl)phenyl]prop-2-enoyl]oxymethyl]-3,4,5-tris(oxidanyl)oxan-2-yl]oxy-7-methyl-7-oxidanyl-4a,5,6,7a-tetrahydro-1H-cyclopenta[c]pyran-4-carboxylic acid

> <PUBCHEM_IUPAC_TRADITIONAL_NAME>
(1S,4aS,7S,7aS)-1-[(2S,3R,4S,5S,6R)-6-[[(E)-3-(3,4-dihydroxyphenyl)acryloyl]oxymethyl]-3,4,5-trihydroxy-tetrahydropyran-2-yl]oxy-7-hydroxy-7-methyl-4a,5,6,7a-tetrahydro-1H-cyclopenta[c]pyran-4-carboxylic acid

> <PUBCHEM_IUPAC_INCHI>
InChI=1S/C25H30O13/c1-25(34)7-6-12-13(22(32)33)9-36-23(18(12)25)38-24-21(31)20(30)19(29)16(37-24)10-35-17(28)5-3-11-2-4-14(26)15(27)8-11/h2-5,8-9,12,16,18-21,23-24,26-27,29-31,34H,6-7,10H2,1H3,(H,32,33)/b5-3+/t12-,16-,18-,19-,20+,21-,23+,24+,25+/m1/s1

> <PUBCHEM_IUPAC_INCHIKEY>
AEBORMNUOJEQOL-OWDFILOBSA-N

> <PUBCHEM_XLOGP3_AA>
-0.6

> <PUBCHEM_EXACT_MASS>
538.16864101

> <PUBCHEM_MOLECULAR_FORMULA>
C25H30O13

> <PUBCHEM_MOLECULAR_WEIGHT>
538.5

> <PUBCHEM_OPENEYE_CAN_SMILES>
CC1(CCC2C1C(OC=C2C(=O)O)OC3C(C(C(C(O3)COC(=O)C=CC4=CC(=C(C=C4)O)O)O)O)O)O

> <PUBCHEM_OPENEYE_ISO_SMILES>
C[C@@]1(CC[C@H]2[C@@H]1[C@@H](OC=C2C(=O)O)O[C@H]3[C@@H]([C@H]([C@@H]([C@H](O3)COC(=O)/C=C/C4=CC(=C(C=C4)O)O)O)O)O)O

> <PUBCHEM_CACTVS_TPSA>
213

> <PUBCHEM_MONOISOTOPIC_WEIGHT>
538.16864101

> <PUBCHEM_TOTAL_CHARGE>
0

> <PUBCHEM_HEAVY_ATOM_COUNT>
38

> <PUBCHEM_ATOM_DEF_STEREO_COUNT>
9

> <PUBCHEM_ATOM_UDEF_STEREO_COUNT>
0

> <PUBCHEM_BOND_DEF_STEREO_COUNT>
1

> <PUBCHEM_BOND_UDEF_STEREO_COUNT>
0

> <PUBCHEM_ISOTOPIC_ATOM_COUNT>
0

> <PUBCHEM_COMPONENT_COUNT>
1

> <PUBCHEM_CACTVS_TAUTO_COUNT>
-1

> <PUBCHEM_COORDINATE_TYPE>
1
5
255

> <PUBCHEM_BONDANNOTATIONS>
15  1  6
14  39  6
16  40  6
28  29  5
19  3  6
23  3  5
33  34  8
33  35  8
34  36  8
35  37  8
36  38  8
37  38  8
24  5  6
26  7  5
27  8  6

$$$$
