 
  -OEChem-10192104372D

 77 80  0     1  0  0  0  0  0999 V2000
   11.4138    2.1074    0.0000 O   0  0  0  0  0  0  0  0  0  0  0  0
   10.7095   -1.1490    0.0000 O   0  0  0  0  0  0  0  0  0  0  0  0
    4.2690   -0.5950    0.0000 O   0  0  0  0  0  0  0  0  0  0  0  0
    6.0010   -0.5950    0.0000 O   0  0  0  0  0  0  0  0  0  0  0  0
    4.2690   -3.5950    0.0000 O   0  0  0  0  0  0  0  0  0  0  0  0
    2.5369   -2.5950    0.0000 O   0  0  0  0  0  0  0  0  0  0  0  0
    6.0010   -2.5950    0.0000 O   0  0  0  0  0  0  0  0  0  0  0  0
    6.0010    0.4050    0.0000 O   0  0  0  0  0  0  0  0  0  0  0  0
   14.7164   -0.7947    0.0000 O   0  0  0  0  0  0  0  0  0  0  0  0
   15.0785    2.6504    0.0000 O   0  0  0  0  0  0  0  0  0  0  0  0
    7.7331    3.4050    0.0000 O   0  0  0  0  0  0  0  0  0  0  0  0
    2.5369    0.4050    0.0000 O   0  0  0  0  0  0  0  0  0  0  0  0
   15.8919    0.8233    0.0000 O   0  0  0  0  0  0  0  0  0  0  0  0
    6.0010    2.4050    0.0000 O   0  0  0  0  0  0  0  0  0  0  0  0
   11.2447    0.4983    0.0000 C   0  0  1  0  0  0  0  0  0  0  0  0
   10.3312    0.9050    0.0000 C   0  0  2  0  0  0  0  0  0  0  0  0
   11.9138    1.2414    0.0000 C   0  0  1  0  0  0  0  0  0  0  0  0
   10.4357    1.8995    0.0000 C   0  0  0  0  0  0  0  0  0  0  0  0
    9.4651    0.4050    0.0000 C   0  0  0  0  0  0  0  0  0  0  0  0
   11.4526   -0.4799    0.0000 C   0  0  0  0  0  0  0  0  0  0  0  0
   12.9084    1.1369    0.0000 C   0  0  0  0  0  0  0  0  0  0  0  0
    8.5991    0.9050    0.0000 C   0  0  0  0  0  0  0  0  0  0  0  0
   13.4961    1.9459    0.0000 C   0  0  0  0  0  0  0  0  0  0  0  0
   13.3151    0.2233    0.0000 C   0  0  0  0  0  0  0  0  0  0  0  0
    4.2690   -2.5950    0.0000 C   0  0  1  0  0  0  0  0  0  0  0  0
    3.4030   -2.0950    0.0000 C   0  0  1  0  0  0  0  0  0  0  0  0
    5.1350   -2.0950    0.0000 C   0  0  2  0  0  0  0  0  0  0  0  0
    3.4030   -1.0950    0.0000 C   0  0  1  0  0  0  0  0  0  0  0  0
    5.1350   -1.0950    0.0000 C   0  0  1  0  0  0  0  0  0  0  0  0
    7.7331    0.4050    0.0000 C   0  0  0  0  0  0  0  0  0  0  0  0
    8.5991    1.9050    0.0000 C   0  0  0  0  0  0  0  0  0  0  0  0
   14.3096    0.1188    0.0000 C   0  0  0  0  0  0  0  0  0  0  0  0
   14.4907    1.8414    0.0000 C   0  0  0  0  0  0  0  0  0  0  0  0
    6.8671    0.9050    0.0000 C   0  0  0  0  0  0  0  0  0  0  0  0
    2.5369   -0.5950    0.0000 C   0  0  0  0  0  0  0  0  0  0  0  0
    7.7331    2.4050    0.0000 C   0  0  0  0  0  0  0  0  0  0  0  0
   14.8974    0.9278    0.0000 C   0  0  0  0  0  0  0  0  0  0  0  0
    6.8671    1.9050    0.0000 C   0  0  0  0  0  0  0  0  0  0  0  0
   14.1286   -1.6038    0.0000 C   0  0  0  0  0  0  0  0  0  0  0  0
   14.6717    3.5639    0.0000 C   0  0  0  0  0  0  0  0  0  0  0  0
    8.5991    3.9050    0.0000 C   0  0  0  0  0  0  0  0  0  0  0  0
   11.8436    0.3378    0.0000 H   0  0  0  0  0  0  0  0  0  0  0  0
    9.8112    1.2427    0.0000 H   0  0  0  0  0  0  0  0  0  0  0  0
   12.2515    1.7614    0.0000 H   0  0  0  0  0  0  0  0  0  0  0  0
   10.3709    2.5161    0.0000 H   0  0  0  0  0  0  0  0  0  0  0  0
    9.8157    1.8995    0.0000 H   0  0  0  0  0  0  0  0  0  0  0  0
    9.0666   -0.0699    0.0000 H   0  0  0  0  0  0  0  0  0  0  0  0
    9.8637   -0.0699    0.0000 H   0  0  0  0  0  0  0  0  0  0  0  0
   11.7812   -1.0057    0.0000 H   0  0  0  0  0  0  0  0  0  0  0  0
   12.0275   -0.2476    0.0000 H   0  0  0  0  0  0  0  0  0  0  0  0
    3.7320   -2.9050    0.0000 H   0  0  0  0  0  0  0  0  0  0  0  0
    3.4030   -2.7150    0.0000 H   0  0  0  0  0  0  0  0  0  0  0  0
   13.2440    2.5123    0.0000 H   0  0  0  0  0  0  0  0  0  0  0  0
   12.9507   -0.2783    0.0000 H   0  0  0  0  0  0  0  0  0  0  0  0
    5.1350   -2.7150    0.0000 H   0  0  0  0  0  0  0  0  0  0  0  0
    3.4030   -0.4750    0.0000 H   0  0  0  0  0  0  0  0  0  0  0  0
    5.1350   -0.4750    0.0000 H   0  0  0  0  0  0  0  0  0  0  0  0
   10.8384   -1.7555    0.0000 H   0  0  0  0  0  0  0  0  0  0  0  0
    7.7331   -0.2150    0.0000 H   0  0  0  0  0  0  0  0  0  0  0  0
    9.1360    2.2150    0.0000 H   0  0  0  0  0  0  0  0  0  0  0  0
    1.9264   -0.4873    0.0000 H   0  0  0  0  0  0  0  0  0  0  0  0
    2.3249   -1.1776    0.0000 H   0  0  0  0  0  0  0  0  0  0  0  0
    3.7320   -3.9050    0.0000 H   0  0  0  0  0  0  0  0  0  0  0  0
    2.0000   -2.2850    0.0000 H   0  0  0  0  0  0  0  0  0  0  0  0
    6.5380   -2.2850    0.0000 H   0  0  0  0  0  0  0  0  0  0  0  0
    2.0000    0.7150    0.0000 H   0  0  0  0  0  0  0  0  0  0  0  0
   16.2564    1.3249    0.0000 H   0  0  0  0  0  0  0  0  0  0  0  0
    6.0010    3.0250    0.0000 H   0  0  0  0  0  0  0  0  0  0  0  0
   13.6270   -1.2393    0.0000 H   0  0  0  0  0  0  0  0  0  0  0  0
   13.7641   -2.1054    0.0000 H   0  0  0  0  0  0  0  0  0  0  0  0
   14.6302   -1.9682    0.0000 H   0  0  0  0  0  0  0  0  0  0  0  0
   15.2381    3.8161    0.0000 H   0  0  0  0  0  0  0  0  0  0  0  0
   14.4195    4.1303    0.0000 H   0  0  0  0  0  0  0  0  0  0  0  0
   14.1053    3.3118    0.0000 H   0  0  0  0  0  0  0  0  0  0  0  0
    8.9091    3.3681    0.0000 H   0  0  0  0  0  0  0  0  0  0  0  0
    9.1360    4.2150    0.0000 H   0  0  0  0  0  0  0  0  0  0  0  0
    8.2891    4.4419    0.0000 H   0  0  0  0  0  0  0  0  0  0  0  0
  1 17  1  0  0  0  0
  1 18  1  0  0  0  0
  2 20  1  0  0  0  0
  2 58  1  0  0  0  0
  3 28  1  0  0  0  0
  3 29  1  0  0  0  0
  4  8  1  0  0  0  0
 29  4  1  1  0  0  0
 25  5  1  1  0  0  0
  5 63  1  0  0  0  0
 26  6  1  6  0  0  0
  6 64  1  0  0  0  0
 27  7  1  6  0  0  0
  7 65  1  0  0  0  0
  8 34  1  0  0  0  0
  9 32  1  0  0  0  0
  9 39  1  0  0  0  0
 10 33  1  0  0  0  0
 10 40  1  0  0  0  0
 11 36  1  0  0  0  0
 11 41  1  0  0  0  0
 12 35  1  0  0  0  0
 12 66  1  0  0  0  0
 13 37  1  0  0  0  0
 13 67  1  0  0  0  0
 14 38  1  0  0  0  0
 14 68  1  0  0  0  0
 15 16  1  0  0  0  0
 15 17  1  0  0  0  0
 15 20  1  1  0  0  0
 15 42  1  0  0  0  0
 16 18  1  0  0  0  0
 16 19  1  1  0  0  0
 16 43  1  0  0  0  0
 17 21  1  6  0  0  0
 17 44  1  0  0  0  0
 18 45  1  0  0  0  0
 18 46  1  0  0  0  0
 19 22  1  0  0  0  0
 19 47  1  0  0  0  0
 19 48  1  0  0  0  0
 20 49  1  0  0  0  0
 20 50  1  0  0  0  0
 21 23  2  0  0  0  0
 21 24  1  0  0  0  0
 22 30  1  0  0  0  0
 22 31  2  0  0  0  0
 23 33  1  0  0  0  0
 23 53  1  0  0  0  0
 24 32  2  0  0  0  0
 24 54  1  0  0  0  0
 25 26  1  0  0  0  0
 25 27  1  0  0  0  0
 25 51  1  0  0  0  0
 26 28  1  0  0  0  0
 26 52  1  0  0  0  0
 27 29  1  0  0  0  0
 27 55  1  0  0  0  0
 28 35  1  1  0  0  0
 28 56  1  0  0  0  0
 29 57  1  0  0  0  0
 30 34  2  0  0  0  0
 30 59  1  0  0  0  0
 31 36  1  0  0  0  0
 31 60  1  0  0  0  0
 32 37  1  0  0  0  0
 33 37  2  0  0  0  0
 34 38  1  0  0  0  0
 35 61  1  0  0  0  0
 35 62  1  0  0  0  0
 36 38  2  0  0  0  0
 39 69  1  0  0  0  0
 39 70  1  0  0  0  0
 39 71  1  0  0  0  0
 40 72  1  0  0  0  0
 40 73  1  0  0  0  0
 40 74  1  0  0  0  0
 41 75  1  0  0  0  0
 41 76  1  0  0  0  0
 41 77  1  0  0  0  0
M  END
> <PUBCHEM_COMPOUND_CID>
25015668

> <PUBCHEM_COMPOUND_CANONICALIZED>
1

> <PUBCHEM_CACTVS_COMPLEXITY>
777

> <PUBCHEM_CACTVS_HBOND_ACCEPTOR>
14

> <PUBCHEM_CACTVS_HBOND_DONOR>
7

> <PUBCHEM_CACTVS_ROTATABLE_BOND>
11

> <PUBCHEM_CACTVS_SUBSKEYS>
AAADcfB4PAAAAAAAAAAAAAAAAAAAASAAAAA0YIAAAAAAAAABQAAAGgAADAAADRSwmAMyDoAABgCAAiBCAAACCAAgIAAAiAAGiIgdNyKGMRqCcCMlwBUPuAfA4PwOoAABCAAAQABAAAIQAACAAAAAAAAAAA==

> <PUBCHEM_IUPAC_OPENEYE_NAME>
(2S,3R,4S,5S,6R)-2-[2-hydroxy-5-[[(3R,4R,5S)-5-(4-hydroxy-3,5-dimethoxy-phenyl)-4-(hydroxymethyl)tetrahydrofuran-3-yl]methyl]-3-methoxy-phenyl]peroxy-6-(hydroxymethyl)tetrahydropyran-3,4,5-triol

> <PUBCHEM_IUPAC_CAS_NAME>
(2S,3R,4S,5S,6R)-2-[2-hydroxy-5-[[(3R,4R,5S)-5-(4-hydroxy-3,5-dimethoxyphenyl)-4-(hydroxymethyl)-3-oxolanyl]methyl]-3-methoxyphenyl]dioxy-6-(hydroxymethyl)oxane-3,4,5-triol

> <PUBCHEM_IUPAC_NAME_MARKUP>
(2<I>S</I>,3<I>R</I>,4<I>S</I>,5<I>S</I>,6<I>R</I>)-2-[2-hydroxy-5-[[(3<I>R</I>,4<I>R</I>,5<I>S</I>)-5-(4-hydroxy-3,5-dimethoxyphenyl)-4-(hydroxymethyl)oxolan-3-yl]methyl]-3-methoxyphenyl]peroxy-6-(hydroxymethyl)oxane-3,4,5-triol

> <PUBCHEM_IUPAC_NAME>
(2S,3R,4S,5S,6R)-2-[2-hydroxy-5-[[(3R,4R,5S)-5-(4-hydroxy-3,5-dimethoxyphenyl)-4-(hydroxymethyl)oxolan-3-yl]methyl]-3-methoxyphenyl]peroxy-6-(hydroxymethyl)oxane-3,4,5-triol

> <PUBCHEM_IUPAC_SYSTEMATIC_NAME>
(2S,3R,4S,5S,6R)-2-[5-[[(3R,4R,5S)-5-(3,5-dimethoxy-4-oxidanyl-phenyl)-4-(hydroxymethyl)oxolan-3-yl]methyl]-3-methoxy-2-oxidanyl-phenyl]peroxy-6-(hydroxymethyl)oxane-3,4,5-triol

> <PUBCHEM_IUPAC_TRADITIONAL_NAME>
(2S,3R,4S,5S,6R)-2-[2-hydroxy-5-[[(3R,4R,5S)-5-(4-hydroxy-3,5-dimethoxy-phenyl)-4-methylol-tetrahydrofuran-3-yl]methyl]-3-methoxy-phenyl]peroxy-6-methylol-tetrahydropyran-3,4,5-triol

> <PUBCHEM_IUPAC_INCHI>
InChI=1S/C27H36O14/c1-35-16-5-12(6-19(22(16)31)40-41-27-25(34)24(33)23(32)20(10-29)39-27)4-14-11-38-26(15(14)9-28)13-7-17(36-2)21(30)18(8-13)37-3/h5-8,14-15,20,23-34H,4,9-11H2,1-3H3/t14-,15-,20+,23+,24-,25+,26+,27-/m0/s1

> <PUBCHEM_IUPAC_INCHIKEY>
OZYCRGONMUGKCA-RURNDBRLSA-N

> <PUBCHEM_XLOGP3_AA>
0.3

> <PUBCHEM_EXACT_MASS>
584.21050582

> <PUBCHEM_MOLECULAR_FORMULA>
C27H36O14

> <PUBCHEM_MOLECULAR_WEIGHT>
584.6

> <PUBCHEM_OPENEYE_CAN_SMILES>
COC1=CC(=CC(=C1O)OC)C2C(C(CO2)CC3=CC(=C(C(=C3)OOC4C(C(C(C(O4)CO)O)O)O)O)OC)CO

> <PUBCHEM_OPENEYE_ISO_SMILES>
COC1=CC(=CC(=C1O)OC)[C@@H]2[C@H]([C@H](CO2)CC3=CC(=C(C(=C3)OO[C@H]4[C@@H]([C@H]([C@@H]([C@H](O4)CO)O)O)O)O)OC)CO

> <PUBCHEM_CACTVS_TPSA>
206

> <PUBCHEM_MONOISOTOPIC_WEIGHT>
584.21050582

> <PUBCHEM_TOTAL_CHARGE>
0

> <PUBCHEM_HEAVY_ATOM_COUNT>
41

> <PUBCHEM_ATOM_DEF_STEREO_COUNT>
8

> <PUBCHEM_ATOM_UDEF_STEREO_COUNT>
0

> <PUBCHEM_BOND_DEF_STEREO_COUNT>
0

> <PUBCHEM_BOND_UDEF_STEREO_COUNT>
0

> <PUBCHEM_ISOTOPIC_ATOM_COUNT>
0

> <PUBCHEM_COMPONENT_COUNT>
1

> <PUBCHEM_CACTVS_TAUTO_COUNT>
-1

> <PUBCHEM_COORDINATE_TYPE>
1
5
255

> <PUBCHEM_BONDANNOTATIONS>
15  20  5
16  19  5
17  21  6
21  23  8
21  24  8
22  30  8
22  31  8
23  33  8
24  32  8
28  35  5
30  34  8
31  36  8
32  37  8
33  37  8
34  38  8
36  38  8
29  4  5
25  5  5
26  6  6
27  7  6

$$$$
