 
  -OEChem-10192104272D

 51 53  0     0  0  0  0  0  0999 V2000
    4.5981    2.7500    0.0000 S   0  0  0  0  0  0  0  0  0  0  0  0
    4.5981    5.7500    0.0000 O   0  0  0  0  0  0  0  0  0  0  0  0
    5.5981    2.7500    0.0000 O   0  0  0  0  0  0  0  0  0  0  0  0
    3.5981    2.7500    0.0000 O   0  0  0  0  0  0  0  0  0  0  0  0
    2.8660    1.7500    0.0000 O   0  0  0  0  0  0  0  0  0  0  0  0
    7.1962   -2.7500    0.0000 O   0  0  0  0  0  0  0  0  0  0  0  0
    5.4641   -1.7500    0.0000 O   0  0  0  0  0  0  0  0  0  0  0  0
    7.1962   -5.7500    0.0000 O   0  5  0  0  0  0  0  0  0  0  0  0
    6.3301   -4.2500    0.0000 O   0  0  0  0  0  0  0  0  0  0  0  0
    4.5981    3.7500    0.0000 N   0  0  0  0  0  0  0  0  0  0  0  0
    6.3301   -0.2500    0.0000 N   0  0  0  0  0  0  0  0  0  0  0  0
    8.9282   -4.7500    0.0000 N   0  0  0  0  0  0  0  0  0  0  0  0
    7.1962   -4.7500    0.0000 N   0  3  0  0  0  0  0  0  0  0  0  0
    3.7320    4.2500    0.0000 C   0  0  0  0  0  0  0  0  0  0  0  0
    5.4641    4.2500    0.0000 C   0  0  0  0  0  0  0  0  0  0  0  0
    3.7320    5.2500    0.0000 C   0  0  0  0  0  0  0  0  0  0  0  0
    5.4641    5.2500    0.0000 C   0  0  0  0  0  0  0  0  0  0  0  0
    4.5981    1.7500    0.0000 C   0  0  0  0  0  0  0  0  0  0  0  0
    3.7320    1.2500    0.0000 C   0  0  0  0  0  0  0  0  0  0  0  0
    5.4641    1.2500    0.0000 C   0  0  0  0  0  0  0  0  0  0  0  0
    5.4641    0.2500    0.0000 C   0  0  0  0  0  0  0  0  0  0  0  0
    3.7320    0.2500    0.0000 C   0  0  0  0  0  0  0  0  0  0  0  0
    4.5981   -0.2500    0.0000 C   0  0  0  0  0  0  0  0  0  0  0  0
    6.3301   -1.2500    0.0000 C   0  0  0  0  0  0  0  0  0  0  0  0
    2.0000    1.2500    0.0000 C   0  0  0  0  0  0  0  0  0  0  0  0
    7.1962   -1.7500    0.0000 C   0  0  0  0  0  0  0  0  0  0  0  0
    8.0622   -3.2500    0.0000 C   0  0  0  0  0  0  0  0  0  0  0  0
    8.0622   -4.2500    0.0000 C   0  0  0  0  0  0  0  0  0  0  0  0
    8.9282   -2.7500    0.0000 C   0  0  0  0  0  0  0  0  0  0  0  0
    9.7942   -3.2500    0.0000 C   0  0  0  0  0  0  0  0  0  0  0  0
    9.7942   -4.2500    0.0000 C   0  0  0  0  0  0  0  0  0  0  0  0
    3.1215    4.3577    0.0000 H   0  0  0  0  0  0  0  0  0  0  0  0
    3.5200    3.6674    0.0000 H   0  0  0  0  0  0  0  0  0  0  0  0
    5.6762    3.6674    0.0000 H   0  0  0  0  0  0  0  0  0  0  0  0
    6.0747    4.3577    0.0000 H   0  0  0  0  0  0  0  0  0  0  0  0
    3.5200    5.8326    0.0000 H   0  0  0  0  0  0  0  0  0  0  0  0
    3.1215    5.1423    0.0000 H   0  0  0  0  0  0  0  0  0  0  0  0
    6.0747    5.1423    0.0000 H   0  0  0  0  0  0  0  0  0  0  0  0
    5.6762    5.8326    0.0000 H   0  0  0  0  0  0  0  0  0  0  0  0
    6.0010    1.5600    0.0000 H   0  0  0  0  0  0  0  0  0  0  0  0
    3.1951   -0.0600    0.0000 H   0  0  0  0  0  0  0  0  0  0  0  0
    4.5981   -0.8700    0.0000 H   0  0  0  0  0  0  0  0  0  0  0  0
    6.8671    0.0600    0.0000 H   0  0  0  0  0  0  0  0  0  0  0  0
    1.6900    1.7869    0.0000 H   0  0  0  0  0  0  0  0  0  0  0  0
    1.4631    0.9400    0.0000 H   0  0  0  0  0  0  0  0  0  0  0  0
    2.3100    0.7131    0.0000 H   0  0  0  0  0  0  0  0  0  0  0  0
    7.8067   -1.8577    0.0000 H   0  0  0  0  0  0  0  0  0  0  0  0
    7.4082   -1.1674    0.0000 H   0  0  0  0  0  0  0  0  0  0  0  0
    8.9282   -2.1300    0.0000 H   0  0  0  0  0  0  0  0  0  0  0  0
   10.3312   -2.9400    0.0000 H   0  0  0  0  0  0  0  0  0  0  0  0
   10.3312   -4.5600    0.0000 H   0  0  0  0  0  0  0  0  0  0  0  0
  1  3  2  0  0  0  0
  1  4  2  0  0  0  0
  1 10  1  0  0  0  0
  1 18  1  0  0  0  0
  2 16  1  0  0  0  0
  2 17  1  0  0  0  0
  5 19  1  0  0  0  0
  5 25  1  0  0  0  0
  6 26  1  0  0  0  0
  6 27  1  0  0  0  0
  7 24  2  0  0  0  0
  8 13  1  0  0  0  0
  9 13  2  0  0  0  0
 10 14  1  0  0  0  0
 10 15  1  0  0  0  0
 11 21  1  0  0  0  0
 11 24  1  0  0  0  0
 11 43  1  0  0  0  0
 12 28  1  0  0  0  0
 12 31  2  0  0  0  0
 13 28  1  0  0  0  0
 14 16  1  0  0  0  0
 14 32  1  0  0  0  0
 14 33  1  0  0  0  0
 15 17  1  0  0  0  0
 15 34  1  0  0  0  0
 15 35  1  0  0  0  0
 16 36  1  0  0  0  0
 16 37  1  0  0  0  0
 17 38  1  0  0  0  0
 17 39  1  0  0  0  0
 18 19  2  0  0  0  0
 18 20  1  0  0  0  0
 19 22  1  0  0  0  0
 20 21  2  0  0  0  0
 20 40  1  0  0  0  0
 21 23  1  0  0  0  0
 22 23  2  0  0  0  0
 22 41  1  0  0  0  0
 23 42  1  0  0  0  0
 24 26  1  0  0  0  0
 25 44  1  0  0  0  0
 25 45  1  0  0  0  0
 25 46  1  0  0  0  0
 26 47  1  0  0  0  0
 26 48  1  0  0  0  0
 27 28  2  0  0  0  0
 27 29  1  0  0  0  0
 29 30  2  0  0  0  0
 29 49  1  0  0  0  0
 30 31  1  0  0  0  0
 30 50  1  0  0  0  0
 31 51  1  0  0  0  0
M  CHG  2   8  -1  13   1
M  END
> <PUBCHEM_COMPOUND_CID>
24380668

> <PUBCHEM_COMPOUND_CANONICALIZED>
1

> <PUBCHEM_CACTVS_COMPLEXITY>
719

> <PUBCHEM_CACTVS_HBOND_ACCEPTOR>
10

> <PUBCHEM_CACTVS_HBOND_DONOR>
1

> <PUBCHEM_CACTVS_ROTATABLE_BOND>
7

> <PUBCHEM_CACTVS_SUBSKEYS>
AAADceB7vABAAAAAAAAAAAAAAAAAAAAAAAA8WIAAAAAAAAABwAAAHgQUQAAACAzh0gY/95LYVAKpADd3d3bCiDkxYiAo2Dp/bJqOJuLEsZ+HOCzk1FPY6CewQAAAAEAAACAAIAAAgAAAQABAAAAAAAAAAA==

> <PUBCHEM_IUPAC_OPENEYE_NAME>
N-(4-methoxy-3-morpholinosulfonyl-phenyl)-2-[(2-nitro-3-pyridyl)oxy]acetamide

> <PUBCHEM_IUPAC_CAS_NAME>
N-[4-methoxy-3-(4-morpholinylsulfonyl)phenyl]-2-[(2-nitro-3-pyridinyl)oxy]acetamide

> <PUBCHEM_IUPAC_NAME_MARKUP>
<I>N</I>-(4-methoxy-3-morpholin-4-ylsulfonylphenyl)-2-(2-nitropyridin-3-yl)oxyacetamide

> <PUBCHEM_IUPAC_NAME>
N-(4-methoxy-3-morpholin-4-ylsulfonylphenyl)-2-(2-nitropyridin-3-yl)oxyacetamide

> <PUBCHEM_IUPAC_SYSTEMATIC_NAME>
N-(4-methoxy-3-morpholin-4-ylsulfonyl-phenyl)-2-(2-nitropyridin-3-yl)oxy-ethanamide

> <PUBCHEM_IUPAC_TRADITIONAL_NAME>
N-(4-methoxy-3-morpholinosulfonyl-phenyl)-2-[(2-nitro-3-pyridyl)oxy]acetamide

> <PUBCHEM_IUPAC_INCHI>
InChI=1S/C18H20N4O8S/c1-28-14-5-4-13(11-16(14)31(26,27)21-7-9-29-10-8-21)20-17(23)12-30-15-3-2-6-19-18(15)22(24)25/h2-6,11H,7-10,12H2,1H3,(H,20,23)

> <PUBCHEM_IUPAC_INCHIKEY>
FSNUVIKLLRCFMH-UHFFFAOYSA-N

> <PUBCHEM_XLOGP3_AA>
0.6

> <PUBCHEM_EXACT_MASS>
452.10018478

> <PUBCHEM_MOLECULAR_FORMULA>
C18H20N4O8S

> <PUBCHEM_MOLECULAR_WEIGHT>
452.4

> <PUBCHEM_OPENEYE_CAN_SMILES>
COC1=C(C=C(C=C1)NC(=O)COC2=C(N=CC=C2)[N+](=O)[O-])S(=O)(=O)N3CCOCC3

> <PUBCHEM_OPENEYE_ISO_SMILES>
COC1=C(C=C(C=C1)NC(=O)COC2=C(N=CC=C2)[N+](=O)[O-])S(=O)(=O)N3CCOCC3

> <PUBCHEM_CACTVS_TPSA>
161

> <PUBCHEM_MONOISOTOPIC_WEIGHT>
452.10018478

> <PUBCHEM_TOTAL_CHARGE>
0

> <PUBCHEM_HEAVY_ATOM_COUNT>
31

> <PUBCHEM_ATOM_DEF_STEREO_COUNT>
0

> <PUBCHEM_ATOM_UDEF_STEREO_COUNT>
0

> <PUBCHEM_BOND_DEF_STEREO_COUNT>
0

> <PUBCHEM_BOND_UDEF_STEREO_COUNT>
0

> <PUBCHEM_ISOTOPIC_ATOM_COUNT>
0

> <PUBCHEM_COMPONENT_COUNT>
1

> <PUBCHEM_CACTVS_TAUTO_COUNT>
-1

> <PUBCHEM_COORDINATE_TYPE>
1
5
255

> <PUBCHEM_BONDANNOTATIONS>
12  28  8
12  31  8
18  19  8
18  20  8
19  22  8
20  21  8
21  23  8
22  23  8
27  28  8
27  29  8
29  30  8
30  31  8

$$$$
