 
  -OEChem-10192104392D

 67 69  0     1  0  0  0  0  0999 V2000
    6.8671   -0.2500    0.0000 O   0  0  0  0  0  0  0  0  0  0  0  0
    4.2690   -2.7500    0.0000 O   0  0  0  0  0  0  0  0  0  0  0  0
    6.0010   -2.7500    0.0000 O   0  0  0  0  0  0  0  0  0  0  0  0
    7.7331   -2.7500    0.0000 O   0  0  0  0  0  0  0  0  0  0  0  0
    9.4651   -1.7500    0.0000 O   0  0  0  0  0  0  0  0  0  0  0  0
    6.0010   -4.7500    0.0000 O   0  0  0  0  0  0  0  0  0  0  0  0
    7.7331    1.2500    0.0000 O   0  0  0  0  0  0  0  0  0  0  0  0
    4.2690   -5.7500    0.0000 O   0  0  0  0  0  0  0  0  0  0  0  0
    2.5369   -4.7500    0.0000 O   0  0  0  0  0  0  0  0  0  0  0  0
    9.4651    0.2500    0.0000 O   0  0  0  0  0  0  0  0  0  0  0  0
    2.5369   -1.7500    0.0000 O   0  0  0  0  0  0  0  0  0  0  0  0
    7.7331    3.2500    0.0000 O   0  0  0  0  0  0  0  0  0  0  0  0
    3.4030    5.7500    0.0000 O   0  0  0  0  0  0  0  0  0  0  0  0
    6.8671   -1.2500    0.0000 C   0  0  1  0  0  0  0  0  0  0  0  0
    7.7331   -1.7500    0.0000 C   0  0  2  0  0  0  0  0  0  0  0  0
    8.5991   -1.2500    0.0000 C   0  0  1  0  0  0  0  0  0  0  0  0
    5.1350   -4.2500    0.0000 C   0  0  2  0  0  0  0  0  0  0  0  0
    4.2690   -4.7500    0.0000 C   0  0  2  0  0  0  0  0  0  0  0  0
    5.1350   -3.2500    0.0000 C   0  0  1  0  0  0  0  0  0  0  0  0
    3.4030   -4.2500    0.0000 C   0  0  1  0  0  0  0  0  0  0  0  0
    8.5991   -0.2500    0.0000 C   0  0  2  0  0  0  0  0  0  0  0  0
    3.4030   -3.2500    0.0000 C   0  0  1  0  0  0  0  0  0  0  0  0
    6.0010   -1.7500    0.0000 C   0  0  0  0  0  0  0  0  0  0  0  0
    7.7331    0.2500    0.0000 C   0  0  1  0  0  0  0  0  0  0  0  0
    2.5369   -2.7500    0.0000 C   0  0  0  0  0  0  0  0  0  0  0  0
    6.8671    1.7500    0.0000 C   0  0  0  0  0  0  0  0  0  0  0  0
    6.8671    2.7500    0.0000 C   0  0  0  0  0  0  0  0  0  0  0  0
    6.0010    1.2500    0.0000 C   0  0  0  0  0  0  0  0  0  0  0  0
    6.0010    3.2500    0.0000 C   0  0  0  0  0  0  0  0  0  0  0  0
    5.1350    1.7500    0.0000 C   0  0  0  0  0  0  0  0  0  0  0  0
    5.1350    2.7500    0.0000 C   0  0  0  0  0  0  0  0  0  0  0  0
    4.2690    3.2500    0.0000 C   0  0  0  0  0  0  0  0  0  0  0  0
    7.7331    4.2500    0.0000 C   0  0  0  0  0  0  0  0  0  0  0  0
    4.2690    4.2500    0.0000 C   0  0  0  0  0  0  0  0  0  0  0  0
    3.4030    4.7500    0.0000 C   0  0  0  0  0  0  0  0  0  0  0  0
    6.3301   -0.9400    0.0000 H   0  0  0  0  0  0  0  0  0  0  0  0
    8.2700   -2.0600    0.0000 H   0  0  0  0  0  0  0  0  0  0  0  0
    9.1360   -0.9400    0.0000 H   0  0  0  0  0  0  0  0  0  0  0  0
    5.1350   -4.8700    0.0000 H   0  0  0  0  0  0  0  0  0  0  0  0
    3.7320   -5.0600    0.0000 H   0  0  0  0  0  0  0  0  0  0  0  0
    5.1350   -2.6300    0.0000 H   0  0  0  0  0  0  0  0  0  0  0  0
    3.4030   -4.8700    0.0000 H   0  0  0  0  0  0  0  0  0  0  0  0
    8.5991    0.3700    0.0000 H   0  0  0  0  0  0  0  0  0  0  0  0
    3.4030   -2.6300    0.0000 H   0  0  0  0  0  0  0  0  0  0  0  0
    5.7890   -1.1674    0.0000 H   0  0  0  0  0  0  0  0  0  0  0  0
    5.3905   -1.8577    0.0000 H   0  0  0  0  0  0  0  0  0  0  0  0
    7.1962    0.5600    0.0000 H   0  0  0  0  0  0  0  0  0  0  0  0
    1.9264   -2.6423    0.0000 H   0  0  0  0  0  0  0  0  0  0  0  0
    2.3249   -3.3326    0.0000 H   0  0  0  0  0  0  0  0  0  0  0  0
    8.2700   -3.0600    0.0000 H   0  0  0  0  0  0  0  0  0  0  0  0
   10.0021   -1.4400    0.0000 H   0  0  0  0  0  0  0  0  0  0  0  0
    6.5380   -4.4400    0.0000 H   0  0  0  0  0  0  0  0  0  0  0  0
    3.7320   -6.0600    0.0000 H   0  0  0  0  0  0  0  0  0  0  0  0
    2.0000   -4.4400    0.0000 H   0  0  0  0  0  0  0  0  0  0  0  0
    9.4651    0.8700    0.0000 H   0  0  0  0  0  0  0  0  0  0  0  0
    2.0000   -1.4400    0.0000 H   0  0  0  0  0  0  0  0  0  0  0  0
    6.0010    0.6300    0.0000 H   0  0  0  0  0  0  0  0  0  0  0  0
    6.0010    3.8700    0.0000 H   0  0  0  0  0  0  0  0  0  0  0  0
    4.5981    1.4400    0.0000 H   0  0  0  0  0  0  0  0  0  0  0  0
    3.7320    2.9400    0.0000 H   0  0  0  0  0  0  0  0  0  0  0  0
    8.3531    4.2500    0.0000 H   0  0  0  0  0  0  0  0  0  0  0  0
    7.7331    4.8700    0.0000 H   0  0  0  0  0  0  0  0  0  0  0  0
    7.1131    4.2500    0.0000 H   0  0  0  0  0  0  0  0  0  0  0  0
    4.8059    4.5600    0.0000 H   0  0  0  0  0  0  0  0  0  0  0  0
    2.7924    4.8577    0.0000 H   0  0  0  0  0  0  0  0  0  0  0  0
    3.1909    4.1674    0.0000 H   0  0  0  0  0  0  0  0  0  0  0  0
    2.8660    6.0600    0.0000 H   0  0  0  0  0  0  0  0  0  0  0  0
  1 14  1  0  0  0  0
  1 24  1  0  0  0  0
  2 19  1  0  0  0  0
  2 22  1  0  0  0  0
 19  3  1  1  0  0  0
  3 23  1  0  0  0  0
 15  4  1  6  0  0  0
  4 50  1  0  0  0  0
 16  5  1  1  0  0  0
  5 51  1  0  0  0  0
 17  6  1  6  0  0  0
  6 52  1  0  0  0  0
 24  7  1  1  0  0  0
  7 26  1  0  0  0  0
 18  8  1  1  0  0  0
  8 53  1  0  0  0  0
 20  9  1  6  0  0  0
  9 54  1  0  0  0  0
 21 10  1  6  0  0  0
 10 55  1  0  0  0  0
 11 25  1  0  0  0  0
 11 56  1  0  0  0  0
 12 27  1  0  0  0  0
 12 33  1  0  0  0  0
 13 35  1  0  0  0  0
 13 67  1  0  0  0  0
 14 15  1  0  0  0  0
 14 23  1  1  0  0  0
 14 36  1  0  0  0  0
 15 16  1  0  0  0  0
 15 37  1  0  0  0  0
 16 21  1  0  0  0  0
 16 38  1  0  0  0  0
 17 18  1  0  0  0  0
 17 19  1  0  0  0  0
 17 39  1  0  0  0  0
 18 20  1  0  0  0  0
 18 40  1  0  0  0  0
 19 41  1  0  0  0  0
 20 22  1  0  0  0  0
 20 42  1  0  0  0  0
 21 24  1  0  0  0  0
 21 43  1  0  0  0  0
 22 25  1  1  0  0  0
 22 44  1  0  0  0  0
 23 45  1  0  0  0  0
 23 46  1  0  0  0  0
 24 47  1  0  0  0  0
 25 48  1  0  0  0  0
 25 49  1  0  0  0  0
 26 27  2  0  0  0  0
 26 28  1  0  0  0  0
 27 29  1  0  0  0  0
 28 30  2  0  0  0  0
 28 57  1  0  0  0  0
 29 31  2  0  0  0  0
 29 58  1  0  0  0  0
 30 31  1  0  0  0  0
 30 59  1  0  0  0  0
 31 32  1  0  0  0  0
 32 34  2  0  0  0  0
 32 60  1  0  0  0  0
 33 61  1  0  0  0  0
 33 62  1  0  0  0  0
 33 63  1  0  0  0  0
 34 35  1  0  0  0  0
 34 64  1  0  0  0  0
 35 65  1  0  0  0  0
 35 66  1  0  0  0  0
M  END
> <PUBCHEM_COMPOUND_CID>
14035432

> <PUBCHEM_COMPOUND_CANONICALIZED>
1

> <PUBCHEM_CACTVS_COMPLEXITY>
665

> <PUBCHEM_CACTVS_HBOND_ACCEPTOR>
13

> <PUBCHEM_CACTVS_HBOND_DONOR>
8

> <PUBCHEM_CACTVS_ROTATABLE_BOND>
9

> <PUBCHEM_CACTVS_SUBSKEYS>
AAADcfB4PAAAAAAAAAAAAAAAAAAAAAAAAAA0SIAAAAAAAAABAAAAGgAACAAADBSwmAMyDoAABgCAAiBCAAACCAAgIAAIiAAGiIgdNiKEMRqieCKlwBEPuAfA4BwOIAABAAAAQABAAAIAAACAAAAAAAAAAA==

> <PUBCHEM_IUPAC_OPENEYE_NAME>
(2R,3S,4S,5R,6R)-2-(hydroxymethyl)-6-[[(2R,3S,4S,5R,6S)-3,4,5-trihydroxy-6-[4-[(E)-3-hydroxyprop-1-enyl]-2-methoxy-phenoxy]tetrahydropyran-2-yl]methoxy]tetrahydropyran-3,4,5-triol

> <PUBCHEM_IUPAC_CAS_NAME>
(2R,3S,4S,5R,6R)-2-(hydroxymethyl)-6-[[(2R,3S,4S,5R,6S)-3,4,5-trihydroxy-6-[4-[(E)-3-hydroxyprop-1-enyl]-2-methoxyphenoxy]-2-oxanyl]methoxy]oxane-3,4,5-triol

> <PUBCHEM_IUPAC_NAME_MARKUP>
(2<I>R</I>,3<I>S</I>,4<I>S</I>,5<I>R</I>,6<I>R</I>)-2-(hydroxymethyl)-6-[[(2<I>R</I>,3<I>S</I>,4<I>S</I>,5<I>R</I>,6<I>S</I>)-3,4,5-trihydroxy-6-[4-[(<I>E</I>)-3-hydroxyprop-1-enyl]-2-methoxyphenoxy]oxan-2-yl]methoxy]oxane-3,4,5-triol

> <PUBCHEM_IUPAC_NAME>
(2R,3S,4S,5R,6R)-2-(hydroxymethyl)-6-[[(2R,3S,4S,5R,6S)-3,4,5-trihydroxy-6-[4-[(E)-3-hydroxyprop-1-enyl]-2-methoxyphenoxy]oxan-2-yl]methoxy]oxane-3,4,5-triol

> <PUBCHEM_IUPAC_SYSTEMATIC_NAME>
(2R,3S,4S,5R,6R)-2-(hydroxymethyl)-6-[[(2R,3S,4S,5R,6S)-6-[2-methoxy-4-[(E)-3-oxidanylprop-1-enyl]phenoxy]-3,4,5-tris(oxidanyl)oxan-2-yl]methoxy]oxane-3,4,5-triol

> <PUBCHEM_IUPAC_TRADITIONAL_NAME>
(2R,3S,4S,5R,6R)-2-methylol-6-[[(2R,3S,4S,5R,6S)-3,4,5-trihydroxy-6-[4-[(E)-3-hydroxyprop-1-enyl]-2-methoxy-phenoxy]tetrahydropyran-2-yl]methoxy]tetrahydropyran-3,4,5-triol

> <PUBCHEM_IUPAC_INCHI>
InChI=1S/C22H32O13/c1-31-12-7-10(3-2-6-23)4-5-11(12)33-22-20(30)18(28)16(26)14(35-22)9-32-21-19(29)17(27)15(25)13(8-24)34-21/h2-5,7,13-30H,6,8-9H2,1H3/b3-2+/t13-,14-,15-,16-,17+,18+,19-,20-,21-,22-/m1/s1

> <PUBCHEM_IUPAC_INCHIKEY>
CQSPCPGNSAKNCP-HSNGOVDPSA-N

> <PUBCHEM_XLOGP3_AA>
-2.7

> <PUBCHEM_EXACT_MASS>
504.18429107

> <PUBCHEM_MOLECULAR_FORMULA>
C22H32O13

> <PUBCHEM_MOLECULAR_WEIGHT>
504.5

> <PUBCHEM_OPENEYE_CAN_SMILES>
COC1=C(C=CC(=C1)C=CCO)OC2C(C(C(C(O2)COC3C(C(C(C(O3)CO)O)O)O)O)O)O

> <PUBCHEM_OPENEYE_ISO_SMILES>
COC1=C(C=CC(=C1)/C=C/CO)O[C@H]2[C@@H]([C@H]([C@@H]([C@H](O2)CO[C@H]3[C@@H]([C@H]([C@@H]([C@H](O3)CO)O)O)O)O)O)O

> <PUBCHEM_CACTVS_TPSA>
208

> <PUBCHEM_MONOISOTOPIC_WEIGHT>
504.18429107

> <PUBCHEM_TOTAL_CHARGE>
0

> <PUBCHEM_HEAVY_ATOM_COUNT>
35

> <PUBCHEM_ATOM_DEF_STEREO_COUNT>
10

> <PUBCHEM_ATOM_UDEF_STEREO_COUNT>
0

> <PUBCHEM_BOND_DEF_STEREO_COUNT>
1

> <PUBCHEM_BOND_UDEF_STEREO_COUNT>
0

> <PUBCHEM_ISOTOPIC_ATOM_COUNT>
0

> <PUBCHEM_COMPONENT_COUNT>
1

> <PUBCHEM_CACTVS_TAUTO_COUNT>
-1

> <PUBCHEM_COORDINATE_TYPE>
1
5
255

> <PUBCHEM_BONDANNOTATIONS>
21  10  6
14  23  5
22  25  5
26  27  8
26  28  8
27  29  8
28  30  8
29  31  8
19  3  5
30  31  8
15  4  6
16  5  5
17  6  6
24  7  5
18  8  5
20  9  6

$$$$
