 
  -OEChem-10192104322D

 42 44  0     1  0  0  0  0  0999 V2000
   11.2942   -2.3660    0.0000 O   0  0  0  0  0  0  0  0  0  0  0  0
    9.9282    0.0000    0.0000 O   0  0  0  0  0  0  0  0  0  0  0  0
    8.5622    2.3660    0.0000 O   0  0  0  0  0  0  0  0  0  0  0  0
    8.1962   -1.0000    0.0000 O   0  0  0  0  0  0  0  0  0  0  0  0
    2.0000   -1.0000    0.0000 O   0  0  0  0  0  0  0  0  0  0  0  0
    4.7320   -1.0000    0.0000 O   0  0  0  0  0  0  0  0  0  0  0  0
    6.4641   -0.0000    0.0000 O   0  0  0  0  0  0  0  0  0  0  0  0
   10.7942   -1.5000    0.0000 C   0  0  3  0  0  0  0  0  0  0  0  0
    9.9282   -1.0000    0.0000 C   0  0  3  0  0  0  0  0  0  0  0  0
   11.7942   -1.5000    0.0000 C   0  0  0  0  0  0  0  0  0  0  0  0
    9.0622    1.5000    0.0000 C   0  0  3  0  0  0  0  0  0  0  0  0
    9.0622   -1.5000    0.0000 C   0  0  0  0  0  0  0  0  0  0  0  0
    9.0622    0.5000    0.0000 C   0  0  0  0  0  0  0  0  0  0  0  0
    9.5622    2.3660    0.0000 C   0  0  0  0  0  0  0  0  0  0  0  0
    3.0000   -1.0000    0.0000 C   0  0  3  0  0  0  0  0  0  0  0  0
    2.5000   -0.1340    0.0000 C   0  0  0  0  0  0  0  0  0  0  0  0
    3.8660   -1.5000    0.0000 C   0  0  0  0  0  0  0  0  0  0  0  0
    7.3301   -1.5000    0.0000 C   0  0  0  0  0  0  0  0  0  0  0  0
    6.4641   -1.0000    0.0000 C   0  0  3  0  0  0  0  0  0  0  0  0
    5.5981   -1.5000    0.0000 C   0  0  0  0  0  0  0  0  0  0  0  0
   10.3558   -1.9384    0.0000 H   0  0  0  0  0  0  0  0  0  0  0  0
   10.4651   -0.6900    0.0000 H   0  0  0  0  0  0  0  0  0  0  0  0
   12.3768   -1.7120    0.0000 H   0  0  0  0  0  0  0  0  0  0  0  0
   11.9019   -0.8894    0.0000 H   0  0  0  0  0  0  0  0  0  0  0  0
    8.4633    1.3395    0.0000 H   0  0  0  0  0  0  0  0  0  0  0  0
    8.6636   -1.9750    0.0000 H   0  0  0  0  0  0  0  0  0  0  0  0
    9.4607   -1.9750    0.0000 H   0  0  0  0  0  0  0  0  0  0  0  0
    8.4516    0.6077    0.0000 H   0  0  0  0  0  0  0  0  0  0  0  0
    8.8501   -0.0826    0.0000 H   0  0  0  0  0  0  0  0  0  0  0  0
   10.1448    2.1540    0.0000 H   0  0  0  0  0  0  0  0  0  0  0  0
    9.6698    2.9766    0.0000 H   0  0  0  0  0  0  0  0  0  0  0  0
    2.8395   -1.5989    0.0000 H   0  0  0  0  0  0  0  0  0  0  0  0
    2.9750    0.2646    0.0000 H   0  0  0  0  0  0  0  0  0  0  0  0
    2.0250    0.2646    0.0000 H   0  0  0  0  0  0  0  0  0  0  0  0
    3.4675   -1.9750    0.0000 H   0  0  0  0  0  0  0  0  0  0  0  0
    4.2646   -1.9750    0.0000 H   0  0  0  0  0  0  0  0  0  0  0  0
    6.9316   -1.9750    0.0000 H   0  0  0  0  0  0  0  0  0  0  0  0
    7.7287   -1.9750    0.0000 H   0  0  0  0  0  0  0  0  0  0  0  0
    7.0010   -0.6900    0.0000 H   0  0  0  0  0  0  0  0  0  0  0  0
    5.1996   -1.9750    0.0000 H   0  0  0  0  0  0  0  0  0  0  0  0
    5.9966   -1.9750    0.0000 H   0  0  0  0  0  0  0  0  0  0  0  0
    5.9272    0.3100    0.0000 H   0  0  0  0  0  0  0  0  0  0  0  0
  1  8  1  0  0  0  0
  1 10  1  0  0  0  0
  2  9  1  0  0  0  0
  2 13  1  0  0  0  0
  3 11  1  0  0  0  0
  3 14  1  0  0  0  0
  4 12  1  0  0  0  0
  4 18  1  0  0  0  0
  5 15  1  0  0  0  0
  5 16  1  0  0  0  0
  6 17  1  0  0  0  0
  6 20  1  0  0  0  0
  7 19  1  0  0  0  0
  7 42  1  0  0  0  0
  8  9  1  0  0  0  0
  8 10  1  0  0  0  0
  8 21  1  0  0  0  0
  9 12  1  0  0  0  0
  9 22  1  0  0  0  0
 10 23  1  0  0  0  0
 10 24  1  0  0  0  0
 11 13  1  0  0  0  0
 11 14  1  0  0  0  0
 11 25  1  0  0  0  0
 12 26  1  0  0  0  0
 12 27  1  0  0  0  0
 13 28  1  0  0  0  0
 13 29  1  0  0  0  0
 14 30  1  0  0  0  0
 14 31  1  0  0  0  0
 15 16  1  0  0  0  0
 15 17  1  0  0  0  0
 15 32  1  0  0  0  0
 16 33  1  0  0  0  0
 16 34  1  0  0  0  0
 17 35  1  0  0  0  0
 17 36  1  0  0  0  0
 18 19  1  0  0  0  0
 18 37  1  0  0  0  0
 18 38  1  0  0  0  0
 19 20  1  0  0  0  0
 19 39  1  0  0  0  0
 20 40  1  0  0  0  0
 20 41  1  0  0  0  0
M  END
> <PUBCHEM_COMPOUND_CID>
53797737

> <PUBCHEM_COMPOUND_CANONICALIZED>
1

> <PUBCHEM_CACTVS_COMPLEXITY>
300

> <PUBCHEM_CACTVS_HBOND_ACCEPTOR>
7

> <PUBCHEM_CACTVS_HBOND_DONOR>
1

> <PUBCHEM_CACTVS_ROTATABLE_BOND>
12

> <PUBCHEM_CACTVS_SUBSKEYS>
AAADceBwOAAAAAAAAAAAAAAAEiQAAAAAAAAAAAAAAAAAAAAAAAAAGgAACAAACBSggAIAAAAABgAAAAAAAAAAAAAAAAAAAAAAAAABEAAAAAACAAAFAAADAABAAAAAAAAAAAAAAAAAAAAAAAAAAAAAAAAAAA==

> <PUBCHEM_IUPAC_OPENEYE_NAME>
1-(oxiran-2-ylmethoxy)-3-[2-(oxiran-2-yl)-2-(oxiran-2-ylmethoxy)ethoxy]propan-2-ol

> <PUBCHEM_IUPAC_CAS_NAME>
1-(2-oxiranylmethoxy)-3-[2-(2-oxiranyl)-2-(2-oxiranylmethoxy)ethoxy]-2-propanol

> <PUBCHEM_IUPAC_NAME_MARKUP>
1-(oxiran-2-ylmethoxy)-3-[2-(oxiran-2-yl)-2-(oxiran-2-ylmethoxy)ethoxy]propan-2-ol

> <PUBCHEM_IUPAC_NAME>
1-(oxiran-2-ylmethoxy)-3-[2-(oxiran-2-yl)-2-(oxiran-2-ylmethoxy)ethoxy]propan-2-ol

> <PUBCHEM_IUPAC_SYSTEMATIC_NAME>
1-(oxiran-2-ylmethoxy)-3-[2-(oxiran-2-yl)-2-(oxiran-2-ylmethoxy)ethoxy]propan-2-ol

> <PUBCHEM_IUPAC_TRADITIONAL_NAME>
1-glycidoxy-3-[2-glycidoxy-2-(oxiran-2-yl)ethoxy]propan-2-ol

> <PUBCHEM_IUPAC_INCHI>
InChI=1S/C13H22O7/c14-9(1-15-3-10-4-17-10)2-16-7-12(13-8-20-13)19-6-11-5-18-11/h9-14H,1-8H2

> <PUBCHEM_IUPAC_INCHIKEY>
FFANAFQYUKPKHG-UHFFFAOYSA-N

> <PUBCHEM_XLOGP3_AA>
-1.7

> <PUBCHEM_EXACT_MASS>
290.13655304

> <PUBCHEM_MOLECULAR_FORMULA>
C13H22O7

> <PUBCHEM_MOLECULAR_WEIGHT>
290.31

> <PUBCHEM_OPENEYE_CAN_SMILES>
C1C(O1)COCC(COCC(C2CO2)OCC3CO3)O

> <PUBCHEM_OPENEYE_ISO_SMILES>
C1C(O1)COCC(COCC(C2CO2)OCC3CO3)O

> <PUBCHEM_CACTVS_TPSA>
85.5

> <PUBCHEM_MONOISOTOPIC_WEIGHT>
290.13655304

> <PUBCHEM_TOTAL_CHARGE>
0

> <PUBCHEM_HEAVY_ATOM_COUNT>
20

> <PUBCHEM_ATOM_DEF_STEREO_COUNT>
0

> <PUBCHEM_ATOM_UDEF_STEREO_COUNT>
5

> <PUBCHEM_BOND_DEF_STEREO_COUNT>
0

> <PUBCHEM_BOND_UDEF_STEREO_COUNT>
0

> <PUBCHEM_ISOTOPIC_ATOM_COUNT>
0

> <PUBCHEM_COMPONENT_COUNT>
1

> <PUBCHEM_CACTVS_TAUTO_COUNT>
-1

> <PUBCHEM_COORDINATE_TYPE>
1
5
255

> <PUBCHEM_BONDANNOTATIONS>
11  13  3
15  17  3
19  7  3
8  10  3
9  12  3

$$$$
