 
  -OEChem-10192104262D

 68 71  0     1  0  0  0  0  0999 V2000
    9.8596    1.1177    0.0000 S   0  0  0  0  0  0  0  0  0  0  0  0
    7.2905    1.4267    0.0000 O   0  0  0  0  0  0  0  0  0  0  0  0
    7.9628   -0.6424    0.0000 O   0  0  0  0  0  0  0  0  0  0  0  0
   10.7826    2.7055    0.0000 O   0  0  0  0  0  0  0  0  0  0  0  0
    6.7553   -0.2205    0.0000 O   0  0  0  0  0  0  0  0  0  0  0  0
    9.3641   -1.6604    0.0000 O   0  0  0  0  0  0  0  0  0  0  0  0
    9.0506    5.7055    0.0000 O   0  0  0  0  0  0  0  0  0  0  0  0
    6.1316    2.7139    0.0000 O   0  0  0  0  0  0  0  0  0  0  0  0
    6.3805   -1.3468    0.0000 O   0  0  0  0  0  0  0  0  0  0  0  0
    2.7431    1.9937    0.0000 O   0  0  0  0  0  0  0  0  0  0  0  0
    6.0184   -4.7920    0.0000 O   0  0  0  0  0  0  0  0  0  0  0  0
    9.0506    2.7055    0.0000 N   0  0  0  0  0  0  0  0  0  0  0  0
    9.9166    4.2055    0.0000 N   0  0  0  0  0  0  0  0  0  0  0  0
    8.2416    1.1177    0.0000 C   0  0  1  0  0  0  0  0  0  0  0  0
    9.0506    1.7055    0.0000 C   0  0  1  0  0  0  0  0  0  0  0  0
    8.5506    0.1667    0.0000 C   0  0  1  0  0  0  0  0  0  0  0  0
    9.5506    0.1667    0.0000 C   0  0  0  0  0  0  0  0  0  0  0  0
    8.1846    3.2055    0.0000 C   0  0  0  0  0  0  0  0  0  0  0  0
    9.9166    3.2055    0.0000 C   0  0  0  0  0  0  0  0  0  0  0  0
    8.1846    4.2055    0.0000 C   0  0  0  0  0  0  0  0  0  0  0  0
    6.5474    0.7576    0.0000 C   0  0  0  0  0  0  0  0  0  0  0  0
    8.3695   -1.5559    0.0000 C   0  0  0  0  0  0  0  0  0  0  0  0
    9.0506    4.7055    0.0000 C   0  0  0  0  0  0  0  0  0  0  0  0
    5.5963    1.0666    0.0000 C   0  0  0  0  0  0  0  0  0  0  0  0
    7.3185    4.7055    0.0000 C   0  0  0  0  0  0  0  0  0  0  0  0
    7.7818   -2.3649    0.0000 C   0  0  0  0  0  0  0  0  0  0  0  0
    5.3884    2.0448    0.0000 C   0  0  0  0  0  0  0  0  0  0  0  0
    6.7872   -2.2604    0.0000 C   0  0  0  0  0  0  0  0  0  0  0  0
    4.8532    0.3975    0.0000 C   0  0  0  0  0  0  0  0  0  0  0  0
    8.1885   -3.2785    0.0000 C   0  0  0  0  0  0  0  0  0  0  0  0
    4.4374    2.3538    0.0000 C   0  0  0  0  0  0  0  0  0  0  0  0
    3.9021    0.7065    0.0000 C   0  0  0  0  0  0  0  0  0  0  0  0
    6.1994   -3.0694    0.0000 C   0  0  0  0  0  0  0  0  0  0  0  0
    7.6007   -4.0875    0.0000 C   0  0  0  0  0  0  0  0  0  0  0  0
    3.6942    1.6847    0.0000 C   0  0  0  0  0  0  0  0  0  0  0  0
    6.6062   -3.9830    0.0000 C   0  0  0  0  0  0  0  0  0  0  0  0
    5.9236    3.6920    0.0000 C   0  0  0  0  0  0  0  0  0  0  0  0
    5.3860   -1.2423    0.0000 C   0  0  0  0  0  0  0  0  0  0  0  0
    2.0000    1.3245    0.0000 C   0  0  0  0  0  0  0  0  0  0  0  0
    6.4251   -5.7055    0.0000 C   0  0  0  0  0  0  0  0  0  0  0  0
    8.1446    1.7301    0.0000 H   0  0  0  0  0  0  0  0  0  0  0  0
    9.6030    1.9870    0.0000 H   0  0  0  0  0  0  0  0  0  0  0  0
    8.8321   -0.3858    0.0000 H   0  0  0  0  0  0  0  0  0  0  0  0
    9.4858   -0.4499    0.0000 H   0  0  0  0  0  0  0  0  0  0  0  0
   10.1570    0.0378    0.0000 H   0  0  0  0  0  0  0  0  0  0  0  0
    7.6476    2.8955    0.0000 H   0  0  0  0  0  0  0  0  0  0  0  0
   10.4536    4.5155    0.0000 H   0  0  0  0  0  0  0  0  0  0  0  0
    7.6285    5.2424    0.0000 H   0  0  0  0  0  0  0  0  0  0  0  0
    6.7816    5.0155    0.0000 H   0  0  0  0  0  0  0  0  0  0  0  0
    7.0085    4.1686    0.0000 H   0  0  0  0  0  0  0  0  0  0  0  0
    4.9821   -0.2090    0.0000 H   0  0  0  0  0  0  0  0  0  0  0  0
    8.8051   -3.3433    0.0000 H   0  0  0  0  0  0  0  0  0  0  0  0
    4.3084    2.9602    0.0000 H   0  0  0  0  0  0  0  0  0  0  0  0
    3.4414    0.2917    0.0000 H   0  0  0  0  0  0  0  0  0  0  0  0
    5.5828   -3.0046    0.0000 H   0  0  0  0  0  0  0  0  0  0  0  0
    7.8529   -4.6539    0.0000 H   0  0  0  0  0  0  0  0  0  0  0  0
    6.5301    3.8210    0.0000 H   0  0  0  0  0  0  0  0  0  0  0  0
    5.7947    4.2985    0.0000 H   0  0  0  0  0  0  0  0  0  0  0  0
    5.3172    3.5632    0.0000 H   0  0  0  0  0  0  0  0  0  0  0  0
    5.4508   -0.6257    0.0000 H   0  0  0  0  0  0  0  0  0  0  0  0
    4.7694   -1.1775    0.0000 H   0  0  0  0  0  0  0  0  0  0  0  0
    5.3212   -1.8589    0.0000 H   0  0  0  0  0  0  0  0  0  0  0  0
    1.5851    1.7853    0.0000 H   0  0  0  0  0  0  0  0  0  0  0  0
    1.5392    0.9097    0.0000 H   0  0  0  0  0  0  0  0  0  0  0  0
    2.4149    0.8638    0.0000 H   0  0  0  0  0  0  0  0  0  0  0  0
    5.8587   -5.9577    0.0000 H   0  0  0  0  0  0  0  0  0  0  0  0
    6.6773   -6.2719    0.0000 H   0  0  0  0  0  0  0  0  0  0  0  0
    6.9915   -5.4533    0.0000 H   0  0  0  0  0  0  0  0  0  0  0  0
  1 15  1  0  0  0  0
  1 17  1  0  0  0  0
 14  2  1  1  0  0  0
  2 21  1  0  0  0  0
 16  3  1  1  0  0  0
  3 22  1  0  0  0  0
  4 19  2  0  0  0  0
  5 21  2  0  0  0  0
  6 22  2  0  0  0  0
  7 23  2  0  0  0  0
  8 27  1  0  0  0  0
  8 37  1  0  0  0  0
  9 28  1  0  0  0  0
  9 38  1  0  0  0  0
 10 35  1  0  0  0  0
 10 39  1  0  0  0  0
 11 36  1  0  0  0  0
 11 40  1  0  0  0  0
 15 12  1  6  0  0  0
 12 18  1  0  0  0  0
 12 19  1  0  0  0  0
 13 19  1  0  0  0  0
 13 23  1  0  0  0  0
 13 47  1  0  0  0  0
 14 15  1  0  0  0  0
 14 16  1  0  0  0  0
 14 41  1  0  0  0  0
 15 42  1  0  0  0  0
 16 17  1  0  0  0  0
 16 43  1  0  0  0  0
 17 44  1  0  0  0  0
 17 45  1  0  0  0  0
 18 20  2  0  0  0  0
 18 46  1  0  0  0  0
 20 23  1  0  0  0  0
 20 25  1  0  0  0  0
 21 24  1  0  0  0  0
 22 26  1  0  0  0  0
 24 27  2  0  0  0  0
 24 29  1  0  0  0  0
 25 48  1  0  0  0  0
 25 49  1  0  0  0  0
 25 50  1  0  0  0  0
 26 28  2  0  0  0  0
 26 30  1  0  0  0  0
 27 31  1  0  0  0  0
 28 33  1  0  0  0  0
 29 32  2  0  0  0  0
 29 51  1  0  0  0  0
 30 34  2  0  0  0  0
 30 52  1  0  0  0  0
 31 35  2  0  0  0  0
 31 53  1  0  0  0  0
 32 35  1  0  0  0  0
 32 54  1  0  0  0  0
 33 36  2  0  0  0  0
 33 55  1  0  0  0  0
 34 36  1  0  0  0  0
 34 56  1  0  0  0  0
 37 57  1  0  0  0  0
 37 58  1  0  0  0  0
 37 59  1  0  0  0  0
 38 60  1  0  0  0  0
 38 61  1  0  0  0  0
 38 62  1  0  0  0  0
 39 63  1  0  0  0  0
 39 64  1  0  0  0  0
 39 65  1  0  0  0  0
 40 66  1  0  0  0  0
 40 67  1  0  0  0  0
 40 68  1  0  0  0  0
M  END
> <PUBCHEM_COMPOUND_CID>
11028206

> <PUBCHEM_COMPOUND_CANONICALIZED>
1

> <PUBCHEM_CACTVS_COMPLEXITY>
992

> <PUBCHEM_CACTVS_HBOND_ACCEPTOR>
11

> <PUBCHEM_CACTVS_HBOND_DONOR>
1

> <PUBCHEM_CACTVS_ROTATABLE_BOND>
11

> <PUBCHEM_CACTVS_SUBSKEYS>
AAADceB7PABAAAAAAAAAAAAAAAAAASAAAAAwYIAAAAAAAAABQAAAHgQQAAAADBTl2AazDoPABAiIAiHWWACCCABkIBAIiAEOCMiPJzaktRqHMWAv5zc6qceI7CzOIAAACAAIAABAAAAQABAAAAAAAAAAAA==

> <PUBCHEM_IUPAC_OPENEYE_NAME>
[(3S,4R,5R)-4-(2,4-dimethoxybenzoyl)oxy-5-(5-methyl-2,4-dioxo-pyrimidin-1-yl)tetrahydrothiophen-3-yl] 2,4-dimethoxybenzoate

> <PUBCHEM_IUPAC_CAS_NAME>
2,4-dimethoxybenzoic acid [(3S,4R,5R)-4-[(2,4-dimethoxyphenyl)-oxomethoxy]-5-(5-methyl-2,4-dioxo-1-pyrimidinyl)-3-thiolanyl] ester

> <PUBCHEM_IUPAC_NAME_MARKUP>
[(3<I>S</I>,4<I>R</I>,5<I>R</I>)-4-(2,4-dimethoxybenzoyl)oxy-5-(5-methyl-2,4-dioxopyrimidin-1-yl)thiolan-3-yl] 2,4-dimethoxybenzoate

> <PUBCHEM_IUPAC_NAME>
[(3S,4R,5R)-4-(2,4-dimethoxybenzoyl)oxy-5-(5-methyl-2,4-dioxopyrimidin-1-yl)thiolan-3-yl] 2,4-dimethoxybenzoate

> <PUBCHEM_IUPAC_SYSTEMATIC_NAME>
[(3S,4R,5R)-4-(2,4-dimethoxyphenyl)carbonyloxy-5-[5-methyl-2,4-bis(oxidanylidene)pyrimidin-1-yl]thiolan-3-yl] 2,4-dimethoxybenzoate

> <PUBCHEM_IUPAC_TRADITIONAL_NAME>
2,4-dimethoxybenzoic acid [(3S,4R,5R)-5-(2,4-diketo-5-methyl-pyrimidin-1-yl)-4-(2,4-dimethoxybenzoyl)oxy-tetrahydrothiophen-3-yl] ester

> <PUBCHEM_IUPAC_INCHI>
InChI=1S/C27H28N2O10S/c1-14-12-29(27(33)28-23(14)30)24-22(39-26(32)18-9-7-16(35-3)11-20(18)37-5)21(13-40-24)38-25(31)17-8-6-15(34-2)10-19(17)36-4/h6-12,21-22,24H,13H2,1-5H3,(H,28,30,33)/t21-,22-,24-/m1/s1

> <PUBCHEM_IUPAC_INCHIKEY>
QPCBQGWJDFUSQX-CQOQZXRMSA-N

> <PUBCHEM_XLOGP3_AA>
3.3

> <PUBCHEM_EXACT_MASS>
572.14646627

> <PUBCHEM_MOLECULAR_FORMULA>
C27H28N2O10S

> <PUBCHEM_MOLECULAR_WEIGHT>
572.6

> <PUBCHEM_OPENEYE_CAN_SMILES>
CC1=CN(C(=O)NC1=O)C2C(C(CS2)OC(=O)C3=C(C=C(C=C3)OC)OC)OC(=O)C4=C(C=C(C=C4)OC)OC

> <PUBCHEM_OPENEYE_ISO_SMILES>
CC1=CN(C(=O)NC1=O)[C@H]2[C@@H]([C@@H](CS2)OC(=O)C3=C(C=C(C=C3)OC)OC)OC(=O)C4=C(C=C(C=C4)OC)OC

> <PUBCHEM_CACTVS_TPSA>
164

> <PUBCHEM_MONOISOTOPIC_WEIGHT>
572.14646627

> <PUBCHEM_TOTAL_CHARGE>
0

> <PUBCHEM_HEAVY_ATOM_COUNT>
40

> <PUBCHEM_ATOM_DEF_STEREO_COUNT>
3

> <PUBCHEM_ATOM_UDEF_STEREO_COUNT>
0

> <PUBCHEM_BOND_DEF_STEREO_COUNT>
0

> <PUBCHEM_BOND_UDEF_STEREO_COUNT>
0

> <PUBCHEM_ISOTOPIC_ATOM_COUNT>
0

> <PUBCHEM_COMPONENT_COUNT>
1

> <PUBCHEM_CACTVS_TAUTO_COUNT>
-1

> <PUBCHEM_COORDINATE_TYPE>
1
5
255

> <PUBCHEM_BONDANNOTATIONS>
15  12  6
12  18  8
12  19  8
13  19  8
13  23  8
18  20  8
14  2  5
20  23  8
24  27  8
24  29  8
26  28  8
26  30  8
27  31  8
28  33  8
29  32  8
16  3  5
30  34  8
31  35  8
32  35  8
33  36  8
34  36  8

$$$$
