 
  -OEChem-10192103472D

 89 94  0     1  0  0  0  0  0999 V2000
    9.8033   -1.3501    0.0000 O   0  0  0  0  0  0  0  0  0  0  0  0
   11.5353   -1.3501    0.0000 O   0  0  0  0  0  0  0  0  0  0  0  0
    9.8033   -4.3501    0.0000 O   0  0  0  0  0  0  0  0  0  0  0  0
    8.0712   -3.3501    0.0000 O   0  0  0  0  0  0  0  0  0  0  0  0
   11.5353   -3.3501    0.0000 O   0  0  0  0  0  0  0  0  0  0  0  0
    7.2052   -1.8501    0.0000 O   0  0  0  0  0  0  0  0  0  0  0  0
   13.2042    0.7029    0.0000 O   0  0  0  0  0  0  0  0  0  0  0  0
    9.9254    1.8735    0.0000 O   0  3  0  0  0  0  0  0  0  0  0  0
   12.6150    4.1836    0.0000 O   0  0  0  0  0  0  0  0  0  0  0  0
   13.4637   -3.6482    0.0000 O   0  0  0  0  0  0  0  0  0  0  0  0
   16.1173   -1.4216    0.0000 O   0  0  0  0  0  0  0  0  0  0  0  0
   15.4333   -3.3009    0.0000 O   0  0  0  0  0  0  0  0  0  0  0  0
    3.0547    3.1741    0.0000 O   0  0  0  0  0  0  0  0  0  0  0  0
    3.7233   -0.2248    0.0000 O   0  0  0  0  0  0  0  0  0  0  0  0
    2.4078    1.2817    0.0000 O   0  0  0  0  0  0  0  0  0  0  0  0
    9.8033   -3.3501    0.0000 C   0  0  1  0  0  0  0  0  0  0  0  0
    8.9372   -2.8501    0.0000 C   0  0  1  0  0  0  0  0  0  0  0  0
   10.6693   -2.8501    0.0000 C   0  0  2  0  0  0  0  0  0  0  0  0
    8.9372   -1.8501    0.0000 C   0  0  1  0  0  0  0  0  0  0  0  0
   10.6693   -1.8501    0.0000 C   0  0  1  0  0  0  0  0  0  0  0  0
    8.0712   -1.3501    0.0000 C   0  0  0  0  0  0  0  0  0  0  0  0
   11.8773   -0.4104    0.0000 C   0  0  0  0  0  0  0  0  0  0  0  0
   11.2346    0.3556    0.0000 C   0  0  0  0  0  0  0  0  0  0  0  0
   12.8622   -0.2368    0.0000 C   0  0  0  0  0  0  0  0  0  0  0  0
   11.5766    1.2953    0.0000 C   0  0  0  0  0  0  0  0  0  0  0  0
   12.5614    1.4690    0.0000 C   0  0  0  0  0  0  0  0  0  0  0  0
   10.2581    0.1822    0.0000 C   0  0  0  0  0  0  0  0  0  0  0  0
   10.8948    2.0828    0.0000 C   0  0  0  0  0  0  0  0  0  0  0  0
   13.5049   -1.0028    0.0000 C   0  0  0  0  0  0  0  0  0  0  0  0
    9.6104    0.9332    0.0000 C   0  0  0  0  0  0  0  0  0  0  0  0
   12.9327    2.4422    0.0000 C   0  0  0  0  0  0  0  0  0  0  0  0
   11.2435    3.0644    0.0000 C   0  0  0  0  0  0  0  0  0  0  0  0
   12.2693    3.2452    0.0000 C   0  0  0  0  0  0  0  0  0  0  0  0
   14.4898   -0.8292    0.0000 C   0  0  0  0  0  0  0  0  0  0  0  0
   13.1629   -1.9425    0.0000 C   0  0  0  0  0  0  0  0  0  0  0  0
   13.8057   -2.7085    0.0000 C   0  0  0  0  0  0  0  0  0  0  0  0
   15.1325   -1.5952    0.0000 C   0  0  0  0  0  0  0  0  0  0  0  0
    8.6293    0.7402    0.0000 C   0  0  0  0  0  0  0  0  0  0  0  0
   14.7905   -2.5349    0.0000 C   0  0  0  0  0  0  0  0  0  0  0  0
    7.9715    1.4934    0.0000 C   0  0  0  0  0  0  0  0  0  0  0  0
    6.9903    1.3004    0.0000 C   0  0  0  0  0  0  0  0  0  0  0  0
   12.4789   -3.8219    0.0000 C   0  0  0  0  0  0  0  0  0  0  0  0
   16.4594   -0.4819    0.0000 C   0  0  0  0  0  0  0  0  0  0  0  0
    6.3326    2.0537    0.0000 C   0  0  0  0  0  0  0  0  0  0  0  0
    5.3514    1.8606    0.0000 C   0  0  0  0  0  0  0  0  0  0  0  0
    5.0280    0.9145    0.0000 C   0  0  0  0  0  0  0  0  0  0  0  0
    4.6936    2.6139    0.0000 C   0  0  0  0  0  0  0  0  0  0  0  0
    3.7124    2.4209    0.0000 C   0  0  0  0  0  0  0  0  0  0  0  0
    4.0467    0.7215    0.0000 C   0  0  0  0  0  0  0  0  0  0  0  0
    3.3890    1.4747    0.0000 C   0  0  0  0  0  0  0  0  0  0  0  0
    3.3781    4.1204    0.0000 C   0  0  0  0  0  0  0  0  0  0  0  0
    2.7421   -0.4178    0.0000 C   0  0  0  0  0  0  0  0  0  0  0  0
    9.2663   -3.6601    0.0000 H   0  0  0  0  0  0  0  0  0  0  0  0
    8.4003   -2.5401    0.0000 H   0  0  0  0  0  0  0  0  0  0  0  0
   10.6693   -3.4701    0.0000 H   0  0  0  0  0  0  0  0  0  0  0  0
    8.9372   -1.2301    0.0000 H   0  0  0  0  0  0  0  0  0  0  0  0
   10.6693   -1.2301    0.0000 H   0  0  0  0  0  0  0  0  0  0  0  0
    8.4698   -0.8752    0.0000 H   0  0  0  0  0  0  0  0  0  0  0  0
    7.6727   -0.8752    0.0000 H   0  0  0  0  0  0  0  0  0  0  0  0
    9.2663   -4.6601    0.0000 H   0  0  0  0  0  0  0  0  0  0  0  0
    8.0712   -3.9701    0.0000 H   0  0  0  0  0  0  0  0  0  0  0  0
   11.5353   -3.9701    0.0000 H   0  0  0  0  0  0  0  0  0  0  0  0
    7.2052   -2.4701    0.0000 H   0  0  0  0  0  0  0  0  0  0  0  0
   10.0504   -0.4020    0.0000 H   0  0  0  0  0  0  0  0  0  0  0  0
   13.5445    2.5428    0.0000 H   0  0  0  0  0  0  0  0  0  0  0  0
   10.8432    3.5378    0.0000 H   0  0  0  0  0  0  0  0  0  0  0  0
   14.7018   -0.2465    0.0000 H   0  0  0  0  0  0  0  0  0  0  0  0
   12.5523   -2.0502    0.0000 H   0  0  0  0  0  0  0  0  0  0  0  0
    8.4287    0.1535    0.0000 H   0  0  0  0  0  0  0  0  0  0  0  0
   12.2183    4.6601    0.0000 H   0  0  0  0  0  0  0  0  0  0  0  0
    8.1720    2.0801    0.0000 H   0  0  0  0  0  0  0  0  0  0  0  0
   15.2213   -3.8836    0.0000 H   0  0  0  0  0  0  0  0  0  0  0  0
    6.7898    0.7137    0.0000 H   0  0  0  0  0  0  0  0  0  0  0  0
   12.3712   -3.2113    0.0000 H   0  0  0  0  0  0  0  0  0  0  0  0
   11.8683   -3.9295    0.0000 H   0  0  0  0  0  0  0  0  0  0  0  0
   12.5865   -4.4325    0.0000 H   0  0  0  0  0  0  0  0  0  0  0  0
   17.0420   -0.6939    0.0000 H   0  0  0  0  0  0  0  0  0  0  0  0
   16.6714    0.1007    0.0000 H   0  0  0  0  0  0  0  0  0  0  0  0
   15.8768   -0.2698    0.0000 H   0  0  0  0  0  0  0  0  0  0  0  0
    6.5331    2.6403    0.0000 H   0  0  0  0  0  0  0  0  0  0  0  0
    5.4358    0.4475    0.0000 H   0  0  0  0  0  0  0  0  0  0  0  0
    4.8942    3.2006    0.0000 H   0  0  0  0  0  0  0  0  0  0  0  0
    2.0000    1.7487    0.0000 H   0  0  0  0  0  0  0  0  0  0  0  0
    3.9648    3.9198    0.0000 H   0  0  0  0  0  0  0  0  0  0  0  0
    3.5787    4.7070    0.0000 H   0  0  0  0  0  0  0  0  0  0  0  0
    2.7915    4.3209    0.0000 H   0  0  0  0  0  0  0  0  0  0  0  0
    2.6224    0.1906    0.0000 H   0  0  0  0  0  0  0  0  0  0  0  0
    2.1337   -0.5374    0.0000 H   0  0  0  0  0  0  0  0  0  0  0  0
    2.8617   -1.0261    0.0000 H   0  0  0  0  0  0  0  0  0  0  0  0
  1 19  1  0  0  0  0
  1 20  1  0  0  0  0
 20  2  1  1  0  0  0
  2 22  1  0  0  0  0
 16  3  1  1  0  0  0
  3 60  1  0  0  0  0
 17  4  1  6  0  0  0
  4 61  1  0  0  0  0
 18  5  1  6  0  0  0
  5 62  1  0  0  0  0
  6 21  1  0  0  0  0
  6 63  1  0  0  0  0
  7 24  1  0  0  0  0
  7 26  1  0  0  0  0
  8 28  2  0  0  0  0
  8 30  1  0  0  0  0
  9 33  1  0  0  0  0
  9 70  1  0  0  0  0
 10 36  1  0  0  0  0
 10 42  1  0  0  0  0
 11 37  1  0  0  0  0
 11 43  1  0  0  0  0
 12 39  1  0  0  0  0
 12 72  1  0  0  0  0
 13 48  1  0  0  0  0
 13 51  1  0  0  0  0
 14 49  1  0  0  0  0
 14 52  1  0  0  0  0
 15 50  1  0  0  0  0
 15 83  1  0  0  0  0
 16 17  1  0  0  0  0
 16 18  1  0  0  0  0
 16 53  1  0  0  0  0
 17 19  1  0  0  0  0
 17 54  1  0  0  0  0
 18 20  1  0  0  0  0
 18 55  1  0  0  0  0
 19 21  1  1  0  0  0
 19 56  1  0  0  0  0
 20 57  1  0  0  0  0
 21 58  1  0  0  0  0
 21 59  1  0  0  0  0
 22 23  1  0  0  0  0
 22 24  2  0  0  0  0
 23 25  2  0  0  0  0
 23 27  1  0  0  0  0
 24 29  1  0  0  0  0
 25 26  1  0  0  0  0
 25 28  1  0  0  0  0
 26 31  2  0  0  0  0
 27 30  2  0  0  0  0
 27 64  1  0  0  0  0
 28 32  1  0  0  0  0
 29 34  2  0  0  0  0
 29 35  1  0  0  0  0
 30 38  1  0  0  0  0
 31 33  1  0  0  0  0
 31 65  1  0  0  0  0
 32 33  2  0  0  0  0
 32 66  1  0  0  0  0
 34 37  1  0  0  0  0
 34 67  1  0  0  0  0
 35 36  2  0  0  0  0
 35 68  1  0  0  0  0
 36 39  1  0  0  0  0
 37 39  2  0  0  0  0
 38 40  2  0  0  0  0
 38 69  1  0  0  0  0
 40 41  1  0  0  0  0
 40 71  1  0  0  0  0
 41 44  2  0  0  0  0
 41 73  1  0  0  0  0
 42 74  1  0  0  0  0
 42 75  1  0  0  0  0
 42 76  1  0  0  0  0
 43 77  1  0  0  0  0
 43 78  1  0  0  0  0
 43 79  1  0  0  0  0
 44 45  1  0  0  0  0
 44 80  1  0  0  0  0
 45 46  2  0  0  0  0
 45 47  1  0  0  0  0
 46 49  1  0  0  0  0
 46 81  1  0  0  0  0
 47 48  2  0  0  0  0
 47 82  1  0  0  0  0
 48 50  1  0  0  0  0
 49 50  2  0  0  0  0
 51 84  1  0  0  0  0
 51 85  1  0  0  0  0
 51 86  1  0  0  0  0
 52 87  1  0  0  0  0
 52 88  1  0  0  0  0
 52 89  1  0  0  0  0
M  CHG  1   8   1
M  END
> <PUBCHEM_COMPOUND_CID>
101787776

> <PUBCHEM_COMPOUND_CANONICALIZED>
1

> <PUBCHEM_CACTVS_COMPLEXITY>
1230

> <PUBCHEM_CACTVS_HBOND_ACCEPTOR>
14

> <PUBCHEM_CACTVS_HBOND_DONOR>
7

> <PUBCHEM_CACTVS_ROTATABLE_BOND>
11

> <PUBCHEM_CACTVS_SUBSKEYS>
AAADcfB8PAAAAAAAAAAAAAAAAAAAAAAAAAA0aMECAAAAAACR9AAAGgAACAAADBSwmAMyDsAABkCIAqBSAAACCAAkIAAIiAEGiMgdNzaGNRqieWOl4BUPuYfK7PzOoAABCAAIQABAAAIQABCAAAAAAAAAAA==

> <PUBCHEM_IUPAC_OPENEYE_NAME>
(2S,3R,4S,5S,6R)-2-[[11-hydroxy-3-(4-hydroxy-3,5-dimethoxy-phenyl)-7-[(1E,3E)-4-(4-hydroxy-3,5-dimethoxy-phenyl)buta-1,3-dienyl]-2-oxa-8-oxoniatricyclo[7.3.1.05,13]trideca-1(12),3,5(13),6,8,10-hexaen-4-yl]oxy]-6-(hydroxymethyl)tetrahydropyran-3,4,5-triol

> <PUBCHEM_IUPAC_CAS_NAME>
(2S,3R,4S,5S,6R)-2-[[11-hydroxy-3-(4-hydroxy-3,5-dimethoxyphenyl)-7-[(1E,3E)-4-(4-hydroxy-3,5-dimethoxyphenyl)buta-1,3-dienyl]-2-oxa-8-oxoniatricyclo[7.3.1.05,13]trideca-1(12),3,5(13),6,8,10-hexaen-4-yl]oxy]-6-(hydroxymethyl)oxane-3,4,5-triol

> <PUBCHEM_IUPAC_NAME_MARKUP>
(2<I>S</I>,3<I>R</I>,4<I>S</I>,5<I>S</I>,6<I>R</I>)-2-[[11-hydroxy-3-(4-hydroxy-3,5-dimethoxyphenyl)-7-[(1<I>E</I>,3<I>E</I>)-4-(4-hydroxy-3,5-dimethoxyphenyl)buta-1,3-dienyl]-2-oxa-8-oxoniatricyclo[7.3.1.0<SUP>5,13</SUP>]trideca-1(12),3,5(13),6,8,10-hexaen-4-yl]oxy]-6-(hydroxymethyl)oxane-3,4,5-triol

> <PUBCHEM_IUPAC_NAME>
(2S,3R,4S,5S,6R)-2-[[11-hydroxy-3-(4-hydroxy-3,5-dimethoxyphenyl)-7-[(1E,3E)-4-(4-hydroxy-3,5-dimethoxyphenyl)buta-1,3-dienyl]-2-oxa-8-oxoniatricyclo[7.3.1.05,13]trideca-1(12),3,5(13),6,8,10-hexaen-4-yl]oxy]-6-(hydroxymethyl)oxane-3,4,5-triol

> <PUBCHEM_IUPAC_SYSTEMATIC_NAME>
(2S,3R,4S,5S,6R)-2-[[3-(3,5-dimethoxy-4-oxidanyl-phenyl)-7-[(1E,3E)-4-(3,5-dimethoxy-4-oxidanyl-phenyl)buta-1,3-dienyl]-11-oxidanyl-2-oxa-8-oxoniatricyclo[7.3.1.05,13]trideca-1(12),3,5(13),6,8,10-hexaen-4-yl]oxy]-6-(hydroxymethyl)oxane-3,4,5-triol

> <PUBCHEM_IUPAC_TRADITIONAL_NAME>
(2S,3R,4S,5S,6R)-2-[[11-hydroxy-3-(4-hydroxy-3,5-dimethoxy-phenyl)-7-[(1E,3E)-4-(4-hydroxy-3,5-dimethoxy-phenyl)buta-1,3-dienyl]-2-oxa-8-oxoniatricyclo[7.3.1.05,13]trideca-1(12),3,5(13),6,8,10-hexaen-4-yl]oxy]-6-methylol-tetrahydropyran-3,4,5-triol

> <PUBCHEM_IUPAC_INCHI>
InChI=1S/C37H36O15/c1-45-24-9-17(10-25(46-2)30(24)40)7-5-6-8-20-15-21-29-22(49-20)13-19(39)14-23(29)50-35(18-11-26(47-3)31(41)27(12-18)48-4)36(21)52-37-34(44)33(43)32(42)28(16-38)51-37/h5-15,28,32-34,37-38,42-44H,16H2,1-4H3,(H2-,39,40,41)/p+1/b7-5+,8-6+/t28-,32-,33+,34-,37+/m1/s1

> <PUBCHEM_IUPAC_INCHIKEY>
KAZPTCVYOHCOIM-ZFYORNLASA-O

> <PUBCHEM_EXACT_MASS>
721.21324547

> <PUBCHEM_MOLECULAR_FORMULA>
C37H37O15+

> <PUBCHEM_MOLECULAR_WEIGHT>
721.7

> <PUBCHEM_OPENEYE_CAN_SMILES>
COC1=CC(=CC(=C1O)OC)C=CC=CC2=CC3=C4C(=CC(=CC4=[O+]2)O)OC(=C3OC5C(C(C(C(O5)CO)O)O)O)C6=CC(=C(C(=C6)OC)O)OC

> <PUBCHEM_OPENEYE_ISO_SMILES>
COC1=CC(=CC(=C1O)OC)/C=C/C=C/C2=CC3=C4C(=CC(=CC4=[O+]2)O)OC(=C3O[C@H]5[C@@H]([C@H]([C@@H]([C@H](O5)CO)O)O)O)C6=CC(=C(C(=C6)OC)O)OC

> <PUBCHEM_CACTVS_TPSA>
207

> <PUBCHEM_MONOISOTOPIC_WEIGHT>
721.21324547

> <PUBCHEM_TOTAL_CHARGE>
1

> <PUBCHEM_HEAVY_ATOM_COUNT>
52

> <PUBCHEM_ATOM_DEF_STEREO_COUNT>
5

> <PUBCHEM_ATOM_UDEF_STEREO_COUNT>
0

> <PUBCHEM_BOND_DEF_STEREO_COUNT>
2

> <PUBCHEM_BOND_UDEF_STEREO_COUNT>
0

> <PUBCHEM_ISOTOPIC_ATOM_COUNT>
0

> <PUBCHEM_COMPONENT_COUNT>
1

> <PUBCHEM_CACTVS_TAUTO_COUNT>
-1

> <PUBCHEM_COORDINATE_TYPE>
1
5
255

> <PUBCHEM_BONDANNOTATIONS>
19  21  5
20  2  5
23  25  8
23  27  8
25  26  8
25  28  8
26  31  8
27  30  8
28  32  8
29  34  8
29  35  8
16  3  5
31  33  8
32  33  8
34  37  8
35  36  8
36  39  8
37  39  8
17  4  6
45  46  8
45  47  8
46  49  8
47  48  8
48  50  8
49  50  8
18  5  6
8  28  8
8  30  8

$$$$
