 
  -OEChem-10192104272D

 40 40  0     0  0  0  0  0  0999 V2000
    4.8213   -0.1710    0.0000 O   0  0  0  0  0  0  0  0  0  0  0  0
    5.4641   -2.4050    0.0000 O   0  0  0  0  0  0  0  0  0  0  0  0
    2.8660    2.0950    0.0000 O   0  0  0  0  0  0  0  0  0  0  0  0
    2.0000   -1.4050    0.0000 O   0  0  0  0  0  0  0  0  0  0  0  0
    5.4641    0.5950    0.0000 C   0  0  0  0  0  0  0  0  0  0  0  0
    5.4641   -1.4050    0.0000 C   0  0  0  0  0  0  0  0  0  0  0  0
    3.7320    1.5950    0.0000 C   0  0  0  0  0  0  0  0  0  0  0  0
    2.8660   -0.9050    0.0000 C   0  0  0  0  0  0  0  0  0  0  0  0
    5.4641    1.5950    0.0000 C   0  0  0  0  0  0  0  0  0  0  0  0
    4.5981   -0.9050    0.0000 C   0  0  0  0  0  0  0  0  0  0  0  0
    4.5981    2.0950    0.0000 C   0  0  0  0  0  0  0  0  0  0  0  0
    3.7320   -1.4050    0.0000 C   0  0  0  0  0  0  0  0  0  0  0  0
    6.3301   -0.9050    0.0000 C   0  0  0  0  0  0  0  0  0  0  0  0
    2.8660    0.0950    0.0000 C   0  0  0  0  0  0  0  0  0  0  0  0
    6.3301    0.0950    0.0000 C   0  0  0  0  0  0  0  0  0  0  0  0
    3.7320    0.5950    0.0000 C   0  0  0  0  0  0  0  0  0  0  0  0
    4.8815    0.8071    0.0000 H   0  0  0  0  0  0  0  0  0  0  0  0
    6.0010   -1.7150    0.0000 H   0  0  0  0  0  0  0  0  0  0  0  0
    3.7320    2.2150    0.0000 H   0  0  0  0  0  0  0  0  0  0  0  0
    2.8660   -1.5250    0.0000 H   0  0  0  0  0  0  0  0  0  0  0  0
    6.0747    1.4873    0.0000 H   0  0  0  0  0  0  0  0  0  0  0  0
    5.6762    2.1776    0.0000 H   0  0  0  0  0  0  0  0  0  0  0  0
    4.9966   -0.4301    0.0000 H   0  0  0  0  0  0  0  0  0  0  0  0
    4.1996   -0.4301    0.0000 H   0  0  0  0  0  0  0  0  0  0  0  0
    3.3335   -1.8800    0.0000 H   0  0  0  0  0  0  0  0  0  0  0  0
    4.1306   -1.8800    0.0000 H   0  0  0  0  0  0  0  0  0  0  0  0
    2.2554   -0.0127    0.0000 H   0  0  0  0  0  0  0  0  0  0  0  0
    2.6540    0.6776    0.0000 H   0  0  0  0  0  0  0  0  0  0  0  0
    4.3426    0.7027    0.0000 H   0  0  0  0  0  0  0  0  0  0  0  0
    3.9441    0.0124    0.0000 H   0  0  0  0  0  0  0  0  0  0  0  0
    4.1996    2.5700    0.0000 H   0  0  0  0  0  0  0  0  0  0  0  0
    4.9966    2.5700    0.0000 H   0  0  0  0  0  0  0  0  0  0  0  0
    6.9407   -0.0127    0.0000 H   0  0  0  0  0  0  0  0  0  0  0  0
    6.5422    0.6776    0.0000 H   0  0  0  0  0  0  0  0  0  0  0  0
    6.5422   -1.4876    0.0000 H   0  0  0  0  0  0  0  0  0  0  0  0
    6.9407   -0.7973    0.0000 H   0  0  0  0  0  0  0  0  0  0  0  0
    4.2107   -0.0633    0.0000 H   0  0  0  0  0  0  0  0  0  0  0  0
    6.0010   -2.7150    0.0000 H   0  0  0  0  0  0  0  0  0  0  0  0
    2.8660    2.7150    0.0000 H   0  0  0  0  0  0  0  0  0  0  0  0
    2.0000   -2.0250    0.0000 H   0  0  0  0  0  0  0  0  0  0  0  0
  1  5  1  0  0  0  0
  1 37  1  0  0  0  0
  2  6  1  0  0  0  0
  2 38  1  0  0  0  0
  3  7  1  0  0  0  0
  3 39  1  0  0  0  0
  4  8  1  0  0  0  0
  4 40  1  0  0  0  0
  5  9  1  0  0  0  0
  5 15  1  0  0  0  0
  5 17  1  0  0  0  0
  6 10  1  0  0  0  0
  6 13  1  0  0  0  0
  6 18  1  0  0  0  0
  7 11  1  0  0  0  0
  7 16  1  0  0  0  0
  7 19  1  0  0  0  0
  8 12  1  0  0  0  0
  8 14  1  0  0  0  0
  8 20  1  0  0  0  0
  9 11  1  0  0  0  0
  9 21  1  0  0  0  0
  9 22  1  0  0  0  0
 10 12  1  0  0  0  0
 10 23  1  0  0  0  0
 10 24  1  0  0  0  0
 11 31  1  0  0  0  0
 11 32  1  0  0  0  0
 12 25  1  0  0  0  0
 12 26  1  0  0  0  0
 13 15  1  0  0  0  0
 13 35  1  0  0  0  0
 13 36  1  0  0  0  0
 14 16  1  0  0  0  0
 14 27  1  0  0  0  0
 14 28  1  0  0  0  0
 15 33  1  0  0  0  0
 15 34  1  0  0  0  0
 16 29  1  0  0  0  0
 16 30  1  0  0  0  0
M  END
> <PUBCHEM_COMPOUND_CID>
70260935

> <PUBCHEM_COMPOUND_CANONICALIZED>
1

> <PUBCHEM_CACTVS_COMPLEXITY>
130

> <PUBCHEM_CACTVS_HBOND_ACCEPTOR>
4

> <PUBCHEM_CACTVS_HBOND_DONOR>
4

> <PUBCHEM_CACTVS_ROTATABLE_BOND>
0

> <PUBCHEM_CACTVS_SUBSKEYS>
AAADceBwOAAAAAAAAAAAAAAAAAAAAAAAAAAAAAAAAAAAAAAAAAAAGgAACAAACBSggAIAAAAAAgAAAAAAAAAAAAAAAAAAAAAAAAAAEAIAAAAAQAAEAAAAAAHAwKAAAAAAAAAAAAAAAAAAAAAAAAAAAAAAAA==

> <PUBCHEM_IUPAC_OPENEYE_NAME>
cyclododecane-1,4,7,10-tetrol

> <PUBCHEM_IUPAC_CAS_NAME>
cyclododecane-1,4,7,10-tetrol

> <PUBCHEM_IUPAC_NAME_MARKUP>
cyclododecane-1,4,7,10-tetrol

> <PUBCHEM_IUPAC_NAME>
cyclododecane-1,4,7,10-tetrol

> <PUBCHEM_IUPAC_SYSTEMATIC_NAME>
cyclododecane-1,4,7,10-tetrol

> <PUBCHEM_IUPAC_TRADITIONAL_NAME>
cyclododecane-1,4,7,10-tetrol

> <PUBCHEM_IUPAC_INCHI>
InChI=1S/C12H24O4/c13-9-1-2-10(14)5-6-12(16)8-7-11(15)4-3-9/h9-16H,1-8H2

> <PUBCHEM_IUPAC_INCHIKEY>
UYLMDBKNVVLUKH-UHFFFAOYSA-N

> <PUBCHEM_XLOGP3_AA>
0.4

> <PUBCHEM_EXACT_MASS>
232.16745924

> <PUBCHEM_MOLECULAR_FORMULA>
C12H24O4

> <PUBCHEM_MOLECULAR_WEIGHT>
232.32

> <PUBCHEM_OPENEYE_CAN_SMILES>
C1CC(CCC(CCC(CCC1O)O)O)O

> <PUBCHEM_OPENEYE_ISO_SMILES>
C1CC(CCC(CCC(CCC1O)O)O)O

> <PUBCHEM_CACTVS_TPSA>
80.9

> <PUBCHEM_MONOISOTOPIC_WEIGHT>
232.16745924

> <PUBCHEM_TOTAL_CHARGE>
0

> <PUBCHEM_HEAVY_ATOM_COUNT>
16

> <PUBCHEM_ATOM_DEF_STEREO_COUNT>
0

> <PUBCHEM_ATOM_UDEF_STEREO_COUNT>
0

> <PUBCHEM_BOND_DEF_STEREO_COUNT>
0

> <PUBCHEM_BOND_UDEF_STEREO_COUNT>
0

> <PUBCHEM_ISOTOPIC_ATOM_COUNT>
0

> <PUBCHEM_COMPONENT_COUNT>
1

> <PUBCHEM_CACTVS_TAUTO_COUNT>
-1

> <PUBCHEM_COORDINATE_TYPE>
1
5
255

$$$$
