 
  -OEChem-10192103472D

 75 76  0     1  0  0  0  0  0999 V2000
    7.7331   -1.0950    0.0000 O   0  0  0  0  0  0  0  0  0  0  0  0
    5.1350    1.4050    0.0000 O   0  0  0  0  0  0  0  0  0  0  0  0
    6.0010   -0.0950    0.0000 O   0  0  0  0  0  0  0  0  0  0  0  0
    9.4651   -1.0950    0.0000 O   0  0  0  0  0  0  0  0  0  0  0  0
    6.0010   -3.0950    0.0000 O   0  0  0  0  0  0  0  0  0  0  0  0
    7.7331   -4.0950    0.0000 O   0  0  0  0  0  0  0  0  0  0  0  0
    9.4651   -3.0950    0.0000 O   0  0  0  0  0  0  0  0  0  0  0  0
    4.2690   -1.0950    0.0000 O   0  0  0  0  0  0  0  0  0  0  0  0
    2.5369   -0.0950    0.0000 O   0  0  0  0  0  0  0  0  0  0  0  0
    2.5369    1.9050    0.0000 O   0  0  0  0  0  0  0  0  0  0  0  0
    5.1350    3.4050    0.0000 O   0  0  0  0  0  0  0  0  0  0  0  0
   10.3312    1.4050    0.0000 O   0  0  0  0  0  0  0  0  0  0  0  0
   12.0632    0.4050    0.0000 O   0  0  0  0  0  0  0  0  0  0  0  0
   12.0632    1.4050    0.0000 O   0  0  0  0  0  0  0  0  0  0  0  0
   12.9292   -1.0950    0.0000 O   0  0  0  0  0  0  0  0  0  0  0  0
    6.8671   -1.5950    0.0000 C   0  0  3  0  0  0  0  0  0  0  0  0
    6.8671   -2.5950    0.0000 C   0  0  3  0  0  0  0  0  0  0  0  0
    7.7331   -3.0950    0.0000 C   0  0  3  0  0  0  0  0  0  0  0  0
    8.5991   -2.5950    0.0000 C   0  0  3  0  0  0  0  0  0  0  0  0
    4.2690   -0.0950    0.0000 C   0  0  3  0  0  0  0  0  0  0  0  0
    5.1350    0.4050    0.0000 C   0  0  3  0  0  0  0  0  0  0  0  0
    3.4030    0.4050    0.0000 C   0  0  3  0  0  0  0  0  0  0  0  0
    3.4030    1.4050    0.0000 C   0  0  3  0  0  0  0  0  0  0  0  0
    8.5991   -1.5950    0.0000 C   0  0  3  0  0  0  0  0  0  0  0  0
    4.2690    1.9050    0.0000 C   0  0  3  0  0  0  0  0  0  0  0  0
    6.0010   -1.0950    0.0000 C   0  0  0  0  0  0  0  0  0  0  0  0
    4.2690    2.9050    0.0000 C   0  0  0  0  0  0  0  0  0  0  0  0
    9.4651   -0.0950    0.0000 C   0  0  0  0  0  0  0  0  0  0  0  0
   10.3312    0.4050    0.0000 C   0  0  3  0  0  0  0  0  0  0  0  0
   11.1972   -0.0950    0.0000 C   0  0  0  0  0  0  0  0  0  0  0  0
   11.1972    1.9050    0.0000 C   0  0  0  0  0  0  0  0  0  0  0  0
   11.1972    2.9050    0.0000 C   0  0  0  0  0  0  0  0  0  0  0  0
   12.9292   -0.0950    0.0000 C   0  0  0  0  0  0  0  0  0  0  0  0
   12.0632    3.4050    0.0000 C   0  0  0  0  0  0  0  0  0  0  0  0
   13.7953    0.4050    0.0000 C   0  0  0  0  0  0  0  0  0  0  0  0
   12.0632    4.4050    0.0000 C   0  0  0  0  0  0  0  0  0  0  0  0
   14.6613   -0.0950    0.0000 C   0  0  0  0  0  0  0  0  0  0  0  0
    6.8671   -0.9750    0.0000 H   0  0  0  0  0  0  0  0  0  0  0  0
    6.8671   -3.2150    0.0000 H   0  0  0  0  0  0  0  0  0  0  0  0
    7.1962   -3.4050    0.0000 H   0  0  0  0  0  0  0  0  0  0  0  0
    8.5991   -3.2150    0.0000 H   0  0  0  0  0  0  0  0  0  0  0  0
    3.7320   -0.4050    0.0000 H   0  0  0  0  0  0  0  0  0  0  0  0
    5.1350   -0.2150    0.0000 H   0  0  0  0  0  0  0  0  0  0  0  0
    2.8660    0.7150    0.0000 H   0  0  0  0  0  0  0  0  0  0  0  0
    2.8660    1.0950    0.0000 H   0  0  0  0  0  0  0  0  0  0  0  0
    8.5991   -0.9750    0.0000 H   0  0  0  0  0  0  0  0  0  0  0  0
    4.8059    2.2150    0.0000 H   0  0  0  0  0  0  0  0  0  0  0  0
    5.3905   -0.9873    0.0000 H   0  0  0  0  0  0  0  0  0  0  0  0
    5.7890   -1.6776    0.0000 H   0  0  0  0  0  0  0  0  0  0  0  0
    4.0569    3.4876    0.0000 H   0  0  0  0  0  0  0  0  0  0  0  0
    3.6584    2.7973    0.0000 H   0  0  0  0  0  0  0  0  0  0  0  0
    5.4641   -2.7850    0.0000 H   0  0  0  0  0  0  0  0  0  0  0  0
    7.1962   -4.4050    0.0000 H   0  0  0  0  0  0  0  0  0  0  0  0
   10.0021   -2.7850    0.0000 H   0  0  0  0  0  0  0  0  0  0  0  0
    3.7320   -1.4050    0.0000 H   0  0  0  0  0  0  0  0  0  0  0  0
    2.0000    0.2150    0.0000 H   0  0  0  0  0  0  0  0  0  0  0  0
    2.5369    2.5250    0.0000 H   0  0  0  0  0  0  0  0  0  0  0  0
    9.2531    0.4876    0.0000 H   0  0  0  0  0  0  0  0  0  0  0  0
    8.8546   -0.2027    0.0000 H   0  0  0  0  0  0  0  0  0  0  0  0
    9.7942    0.7150    0.0000 H   0  0  0  0  0  0  0  0  0  0  0  0
    5.1350    4.0250    0.0000 H   0  0  0  0  0  0  0  0  0  0  0  0
   10.7987   -0.5699    0.0000 H   0  0  0  0  0  0  0  0  0  0  0  0
   11.5957   -0.5699    0.0000 H   0  0  0  0  0  0  0  0  0  0  0  0
   10.9851    3.4876    0.0000 H   0  0  0  0  0  0  0  0  0  0  0  0
   10.5866    2.7973    0.0000 H   0  0  0  0  0  0  0  0  0  0  0  0
   12.2753    2.8224    0.0000 H   0  0  0  0  0  0  0  0  0  0  0  0
   12.6738    3.5127    0.0000 H   0  0  0  0  0  0  0  0  0  0  0  0
   14.1938    0.8799    0.0000 H   0  0  0  0  0  0  0  0  0  0  0  0
   13.3967    0.8799    0.0000 H   0  0  0  0  0  0  0  0  0  0  0  0
   12.6832    4.4050    0.0000 H   0  0  0  0  0  0  0  0  0  0  0  0
   12.0632    5.0250    0.0000 H   0  0  0  0  0  0  0  0  0  0  0  0
   11.4432    4.4050    0.0000 H   0  0  0  0  0  0  0  0  0  0  0  0
   14.3513   -0.6319    0.0000 H   0  0  0  0  0  0  0  0  0  0  0  0
   15.1982   -0.4050    0.0000 H   0  0  0  0  0  0  0  0  0  0  0  0
   14.9713    0.4419    0.0000 H   0  0  0  0  0  0  0  0  0  0  0  0
  1 16  1  0  0  0  0
  1 24  1  0  0  0  0
  2 21  1  0  0  0  0
  2 25  1  0  0  0  0
  3 21  1  0  0  0  0
  3 26  1  0  0  0  0
  4 24  1  0  0  0  0
  4 28  1  0  0  0  0
  5 17  1  0  0  0  0
  5 52  1  0  0  0  0
  6 18  1  0  0  0  0
  6 53  1  0  0  0  0
  7 19  1  0  0  0  0
  7 54  1  0  0  0  0
  8 20  1  0  0  0  0
  8 55  1  0  0  0  0
  9 22  1  0  0  0  0
  9 56  1  0  0  0  0
 10 23  1  0  0  0  0
 10 57  1  0  0  0  0
 11 27  1  0  0  0  0
 11 61  1  0  0  0  0
 12 29  1  0  0  0  0
 12 31  1  0  0  0  0
 13 30  1  0  0  0  0
 13 33  1  0  0  0  0
 14 31  2  0  0  0  0
 15 33  2  0  0  0  0
 16 17  1  0  0  0  0
 16 26  1  0  0  0  0
 16 38  1  0  0  0  0
 17 18  1  0  0  0  0
 17 39  1  0  0  0  0
 18 19  1  0  0  0  0
 18 40  1  0  0  0  0
 19 24  1  0  0  0  0
 19 41  1  0  0  0  0
 20 21  1  0  0  0  0
 20 22  1  0  0  0  0
 20 42  1  0  0  0  0
 21 43  1  0  0  0  0
 22 23  1  0  0  0  0
 22 44  1  0  0  0  0
 23 25  1  0  0  0  0
 23 45  1  0  0  0  0
 24 46  1  0  0  0  0
 25 27  1  0  0  0  0
 25 47  1  0  0  0  0
 26 48  1  0  0  0  0
 26 49  1  0  0  0  0
 27 50  1  0  0  0  0
 27 51  1  0  0  0  0
 28 29  1  0  0  0  0
 28 58  1  0  0  0  0
 28 59  1  0  0  0  0
 29 30  1  0  0  0  0
 29 60  1  0  0  0  0
 30 62  1  0  0  0  0
 30 63  1  0  0  0  0
 31 32  1  0  0  0  0
 32 34  1  0  0  0  0
 32 64  1  0  0  0  0
 32 65  1  0  0  0  0
 33 35  1  0  0  0  0
 34 36  1  0  0  0  0
 34 66  1  0  0  0  0
 34 67  1  0  0  0  0
 35 37  1  0  0  0  0
 35 68  1  0  0  0  0
 35 69  1  0  0  0  0
 36 70  1  0  0  0  0
 36 71  1  0  0  0  0
 36 72  1  0  0  0  0
 37 73  1  0  0  0  0
 37 74  1  0  0  0  0
 37 75  1  0  0  0  0
M  END
> <PUBCHEM_COMPOUND_CID>
138269189

> <PUBCHEM_COMPOUND_CANONICALIZED>
1

> <PUBCHEM_CACTVS_COMPLEXITY>
708

> <PUBCHEM_CACTVS_HBOND_ACCEPTOR>
15

> <PUBCHEM_CACTVS_HBOND_DONOR>
7

> <PUBCHEM_CACTVS_ROTATABLE_BOND>
15

> <PUBCHEM_CACTVS_SUBSKEYS>
AAADcfB4PAAAAAAAAAAAAAAAAAAAAAAAAAAkSAAAAAAAAAAAAAAAGgAACAAACBSwgAMCCAAABgAIAACQCAAAAAAAAAAAAAEAAAAREBIAAAAiQAAFAAAHAAHAYAwAAAAAAAAAAAAAAAAAAAAAAAAAAAAAAA==

> <PUBCHEM_IUPAC_OPENEYE_NAME>
[1-(propanoyloxymethyl)-2-[3,4,5-trihydroxy-6-[[3,4,5-trihydroxy-6-(hydroxymethyl)tetrahydropyran-2-yl]oxymethyl]tetrahydropyran-2-yl]oxy-ethyl] butanoate

> <PUBCHEM_IUPAC_CAS_NAME>
butanoic acid [1-(1-oxopropoxy)-3-[[3,4,5-trihydroxy-6-[[3,4,5-trihydroxy-6-(hydroxymethyl)-2-oxanyl]oxymethyl]-2-oxanyl]oxy]propan-2-yl] ester

> <PUBCHEM_IUPAC_NAME_MARKUP>
[1-propanoyloxy-3-[3,4,5-trihydroxy-6-[[3,4,5-trihydroxy-6-(hydroxymethyl)oxan-2-yl]oxymethyl]oxan-2-yl]oxypropan-2-yl] butanoate

> <PUBCHEM_IUPAC_NAME>
[1-propanoyloxy-3-[3,4,5-trihydroxy-6-[[3,4,5-trihydroxy-6-(hydroxymethyl)oxan-2-yl]oxymethyl]oxan-2-yl]oxypropan-2-yl] butanoate

> <PUBCHEM_IUPAC_SYSTEMATIC_NAME>
[1-[6-[[6-(hydroxymethyl)-3,4,5-tris(oxidanyl)oxan-2-yl]oxymethyl]-3,4,5-tris(oxidanyl)oxan-2-yl]oxy-3-propanoyloxy-propan-2-yl] butanoate

> <PUBCHEM_IUPAC_TRADITIONAL_NAME>
butyric acid [1-(propionyloxymethyl)-2-[3,4,5-trihydroxy-6-[(3,4,5-trihydroxy-6-methylol-tetrahydropyran-2-yl)oxymethyl]tetrahydropyran-2-yl]oxy-ethyl] ester

> <PUBCHEM_IUPAC_INCHI>
InChI=1S/C22H38O15/c1-3-5-14(25)35-10(7-32-13(24)4-2)8-33-21-20(31)18(29)16(27)12(37-21)9-34-22-19(30)17(28)15(26)11(6-23)36-22/h10-12,15-23,26-31H,3-9H2,1-2H3

> <PUBCHEM_IUPAC_INCHIKEY>
UBLQHXYBPDAIIV-UHFFFAOYSA-N

> <PUBCHEM_XLOGP3_AA>
-3.1

> <PUBCHEM_EXACT_MASS>
542.22107050

> <PUBCHEM_MOLECULAR_FORMULA>
C22H38O15

> <PUBCHEM_MOLECULAR_WEIGHT>
542.5

> <PUBCHEM_OPENEYE_CAN_SMILES>
CCCC(=O)OC(COC1C(C(C(C(O1)COC2C(C(C(C(O2)CO)O)O)O)O)O)O)COC(=O)CC

> <PUBCHEM_OPENEYE_ISO_SMILES>
CCCC(=O)OC(COC1C(C(C(C(O1)COC2C(C(C(C(O2)CO)O)O)O)O)O)O)COC(=O)CC

> <PUBCHEM_CACTVS_TPSA>
231

> <PUBCHEM_MONOISOTOPIC_WEIGHT>
542.22107050

> <PUBCHEM_TOTAL_CHARGE>
0

> <PUBCHEM_HEAVY_ATOM_COUNT>
37

> <PUBCHEM_ATOM_DEF_STEREO_COUNT>
0

> <PUBCHEM_ATOM_UDEF_STEREO_COUNT>
11

> <PUBCHEM_BOND_DEF_STEREO_COUNT>
0

> <PUBCHEM_BOND_UDEF_STEREO_COUNT>
0

> <PUBCHEM_ISOTOPIC_ATOM_COUNT>
0

> <PUBCHEM_COMPONENT_COUNT>
1

> <PUBCHEM_CACTVS_TAUTO_COUNT>
-1

> <PUBCHEM_COORDINATE_TYPE>
1
5
255

> <PUBCHEM_BONDANNOTATIONS>
23  10  3
16  26  3
25  27  3
29  28  3
21  3  3
24  4  3
17  5  3
18  6  3
19  7  3
20  8  3
22  9  3

$$$$
