 
  -OEChem-10192104322D

 23 23  0     1  0  0  0  0  0999 V2000
    5.4543   -0.3317    0.0000 O   0  0  0  0  0  0  0  0  0  0  0  0
    5.9543    1.2072    0.0000 O   0  0  0  0  0  0  0  0  0  0  0  0
    3.4863   -1.0311    0.0000 O   0  0  0  0  0  0  0  0  0  0  0  0
    2.0000    0.3072    0.0000 O   0  0  0  0  0  0  0  0  0  0  0  0
    4.6453    0.2561    0.0000 C   0  0  1  0  0  0  0  0  0  0  0  0
    6.2633    0.2561    0.0000 C   0  0  0  0  0  0  0  0  0  0  0  0
    4.9543    1.2072    0.0000 C   0  0  0  0  0  0  0  0  0  0  0  0
    3.6942   -0.0529    0.0000 C   0  0  2  0  0  0  0  0  0  0  0  0
    7.2144    0.5651    0.0000 C   0  0  0  0  0  0  0  0  0  0  0  0
    6.8511   -0.5529    0.0000 C   0  0  0  0  0  0  0  0  0  0  0  0
    2.9511    0.6162    0.0000 C   0  0  0  0  0  0  0  0  0  0  0  0
    4.5123   -0.5834    0.0000 H   0  0  0  0  0  0  0  0  0  0  0  0
    5.0191    1.8238    0.0000 H   0  0  0  0  0  0  0  0  0  0  0  0
    4.3478    1.3361    0.0000 H   0  0  0  0  0  0  0  0  0  0  0  0
    3.1046   -0.2445    0.0000 H   0  0  0  0  0  0  0  0  0  0  0  0
    7.4059   -0.0245    0.0000 H   0  0  0  0  0  0  0  0  0  0  0  0
    7.8040    0.7567    0.0000 H   0  0  0  0  0  0  0  0  0  0  0  0
    7.0228    1.1548    0.0000 H   0  0  0  0  0  0  0  0  0  0  0  0
    6.3495   -0.9173    0.0000 H   0  0  0  0  0  0  0  0  0  0  0  0
    7.2155   -1.0545    0.0000 H   0  0  0  0  0  0  0  0  0  0  0  0
    7.3527   -0.1885    0.0000 H   0  0  0  0  0  0  0  0  0  0  0  0
    3.0800    1.2227    0.0000 H   0  0  0  0  0  0  0  0  0  0  0  0
    2.8966   -1.2227    0.0000 H   0  0  0  0  0  0  0  0  0  0  0  0
  1  5  1  0  0  0  0
  1  6  1  0  0  0  0
  2  6  1  0  0  0  0
  2  7  1  0  0  0  0
  8  3  1  1  0  0  0
  3 23  1  0  0  0  0
  4 11  2  0  0  0  0
  5  7  1  0  0  0  0
  5  8  1  0  0  0  0
  5 12  1  1  0  0  0
  6  9  1  0  0  0  0
  6 10  1  0  0  0  0
  7 13  1  0  0  0  0
  7 14  1  0  0  0  0
  8 11  1  0  0  0  0
  8 15  1  0  0  0  0
  9 16  1  0  0  0  0
  9 17  1  0  0  0  0
  9 18  1  0  0  0  0
 10 19  1  0  0  0  0
 10 20  1  0  0  0  0
 10 21  1  0  0  0  0
 11 22  1  0  0  0  0
M  END
> <PUBCHEM_COMPOUND_CID>
101638824

> <PUBCHEM_COMPOUND_CANONICALIZED>
1

> <PUBCHEM_CACTVS_COMPLEXITY>
155

> <PUBCHEM_CACTVS_HBOND_ACCEPTOR>
4

> <PUBCHEM_CACTVS_HBOND_DONOR>
1

> <PUBCHEM_CACTVS_ROTATABLE_BOND>
2

> <PUBCHEM_CACTVS_SUBSKEYS>
AAADccBgOAAAAAAAAAAAAAAAAAAAASAAAAAAAAAAAAAAAAAAAAAAGgAACAAACBSggAICCAAABgAIAAgQgAIAAAAAAAAAAAFAAAAREBQAAAAiQAAFIAAHAAACAAAAAAAAAAAAAAAAAAAAAAAAAAAAAAAAAA==

> <PUBCHEM_IUPAC_OPENEYE_NAME>
(2R)-2-[(4S)-2,2-dimethyl-1,3-dioxolan-4-yl]-2-hydroxy-acetaldehyde

> <PUBCHEM_IUPAC_CAS_NAME>
(2R)-2-[(4S)-2,2-dimethyl-1,3-dioxolan-4-yl]-2-hydroxyacetaldehyde

> <PUBCHEM_IUPAC_NAME_MARKUP>
(2<I>R</I>)-2-[(4<I>S</I>)-2,2-dimethyl-1,3-dioxolan-4-yl]-2-hydroxyacetaldehyde

> <PUBCHEM_IUPAC_NAME>
(2R)-2-[(4S)-2,2-dimethyl-1,3-dioxolan-4-yl]-2-hydroxyacetaldehyde

> <PUBCHEM_IUPAC_SYSTEMATIC_NAME>
(2R)-2-[(4S)-2,2-dimethyl-1,3-dioxolan-4-yl]-2-oxidanyl-ethanal

> <PUBCHEM_IUPAC_TRADITIONAL_NAME>
(2R)-2-[(4S)-2,2-dimethyl-1,3-dioxolan-4-yl]-2-hydroxy-acetaldehyde

> <PUBCHEM_IUPAC_INCHI>
InChI=1S/C7H12O4/c1-7(2)10-4-6(11-7)5(9)3-8/h3,5-6,9H,4H2,1-2H3/t5-,6-/m0/s1

> <PUBCHEM_IUPAC_INCHIKEY>
BCIDPFVWACSAAZ-WDSKDSINSA-N

> <PUBCHEM_XLOGP3_AA>
-0.6

> <PUBCHEM_EXACT_MASS>
160.07355886

> <PUBCHEM_MOLECULAR_FORMULA>
C7H12O4

> <PUBCHEM_MOLECULAR_WEIGHT>
160.17

> <PUBCHEM_OPENEYE_CAN_SMILES>
CC1(OCC(O1)C(C=O)O)C

> <PUBCHEM_OPENEYE_ISO_SMILES>
CC1(OC[C@H](O1)[C@H](C=O)O)C

> <PUBCHEM_CACTVS_TPSA>
55.8

> <PUBCHEM_MONOISOTOPIC_WEIGHT>
160.07355886

> <PUBCHEM_TOTAL_CHARGE>
0

> <PUBCHEM_HEAVY_ATOM_COUNT>
11

> <PUBCHEM_ATOM_DEF_STEREO_COUNT>
2

> <PUBCHEM_ATOM_UDEF_STEREO_COUNT>
0

> <PUBCHEM_BOND_DEF_STEREO_COUNT>
0

> <PUBCHEM_BOND_UDEF_STEREO_COUNT>
0

> <PUBCHEM_ISOTOPIC_ATOM_COUNT>
0

> <PUBCHEM_COMPONENT_COUNT>
1

> <PUBCHEM_CACTVS_TAUTO_COUNT>
-1

> <PUBCHEM_COORDINATE_TYPE>
1
5
255

> <PUBCHEM_BONDANNOTATIONS>
8  3  5
5  12  5

$$$$
