 
  -OEChem-10192104052D

 44 45  0     0  0  0  0  0  0999 V2000
    6.8671    2.9050    0.0000 O   0  0  0  0  0  0  0  0  0  0  0  0
    5.1350   -1.0950    0.0000 O   0  0  0  0  0  0  0  0  0  0  0  0
   10.3312    4.9050    0.0000 O   0  0  0  0  0  0  0  0  0  0  0  0
    3.4030   -1.0950    0.0000 O   0  0  0  0  0  0  0  0  0  0  0  0
    2.5369   -2.5950    0.0000 O   0  0  0  0  0  0  0  0  0  0  0  0
    4.2690   -5.5950    0.0000 O   0  0  0  0  0  0  0  0  0  0  0  0
    6.0010    1.4050    0.0000 C   0  0  0  0  0  0  0  0  0  0  0  0
    6.0010    0.4050    0.0000 C   0  0  0  0  0  0  0  0  0  0  0  0
    6.8671    1.9050    0.0000 C   0  0  0  0  0  0  0  0  0  0  0  0
    5.1350   -0.0950    0.0000 C   0  0  0  0  0  0  0  0  0  0  0  0
    7.7331    3.4050    0.0000 C   0  0  0  0  0  0  0  0  0  0  0  0
    4.2690   -2.5950    0.0000 C   0  0  0  0  0  0  0  0  0  0  0  0
    4.2690   -1.5950    0.0000 C   0  0  0  0  0  0  0  0  0  0  0  0
    8.5991    2.9050    0.0000 C   0  0  0  0  0  0  0  0  0  0  0  0
    7.7331    4.4050    0.0000 C   0  0  0  0  0  0  0  0  0  0  0  0
    3.4030   -3.0950    0.0000 C   0  0  0  0  0  0  0  0  0  0  0  0
    5.1350   -3.0950    0.0000 C   0  0  0  0  0  0  0  0  0  0  0  0
    9.4651    3.4050    0.0000 C   0  0  0  0  0  0  0  0  0  0  0  0
    8.5991    4.9050    0.0000 C   0  0  0  0  0  0  0  0  0  0  0  0
    9.4651    4.4050    0.0000 C   0  0  0  0  0  0  0  0  0  0  0  0
    3.4030   -4.0950    0.0000 C   0  0  0  0  0  0  0  0  0  0  0  0
    5.1350   -4.0950    0.0000 C   0  0  0  0  0  0  0  0  0  0  0  0
    4.2690   -4.5950    0.0000 C   0  0  0  0  0  0  0  0  0  0  0  0
   10.3312    5.9050    0.0000 C   0  0  0  0  0  0  0  0  0  0  0  0
    5.7890    1.9876    0.0000 H   0  0  0  0  0  0  0  0  0  0  0  0
    5.3905    1.2973    0.0000 H   0  0  0  0  0  0  0  0  0  0  0  0
    6.2131   -0.1776    0.0000 H   0  0  0  0  0  0  0  0  0  0  0  0
    6.6116    0.5127    0.0000 H   0  0  0  0  0  0  0  0  0  0  0  0
    7.0791    1.3224    0.0000 H   0  0  0  0  0  0  0  0  0  0  0  0
    7.4776    2.0127    0.0000 H   0  0  0  0  0  0  0  0  0  0  0  0
    4.9230    0.4876    0.0000 H   0  0  0  0  0  0  0  0  0  0  0  0
    4.5244   -0.2027    0.0000 H   0  0  0  0  0  0  0  0  0  0  0  0
    8.5991    2.2850    0.0000 H   0  0  0  0  0  0  0  0  0  0  0  0
    7.1962    4.7150    0.0000 H   0  0  0  0  0  0  0  0  0  0  0  0
    5.6720   -2.7850    0.0000 H   0  0  0  0  0  0  0  0  0  0  0  0
   10.0021    3.0950    0.0000 H   0  0  0  0  0  0  0  0  0  0  0  0
    8.5991    5.5250    0.0000 H   0  0  0  0  0  0  0  0  0  0  0  0
    2.8660   -4.4050    0.0000 H   0  0  0  0  0  0  0  0  0  0  0  0
    5.6720   -4.4050    0.0000 H   0  0  0  0  0  0  0  0  0  0  0  0
    2.0000   -2.9050    0.0000 H   0  0  0  0  0  0  0  0  0  0  0  0
   10.9512    5.9050    0.0000 H   0  0  0  0  0  0  0  0  0  0  0  0
   10.3312    6.5250    0.0000 H   0  0  0  0  0  0  0  0  0  0  0  0
    9.7112    5.9050    0.0000 H   0  0  0  0  0  0  0  0  0  0  0  0
    4.8059   -5.9050    0.0000 H   0  0  0  0  0  0  0  0  0  0  0  0
  1  9  1  0  0  0  0
  1 11  1  0  0  0  0
  2 10  1  0  0  0  0
  2 13  1  0  0  0  0
  3 20  1  0  0  0  0
  3 24  1  0  0  0  0
  4 13  2  0  0  0  0
  5 16  1  0  0  0  0
  5 40  1  0  0  0  0
  6 23  1  0  0  0  0
  6 44  1  0  0  0  0
  7  8  1  0  0  0  0
  7  9  1  0  0  0  0
  7 25  1  0  0  0  0
  7 26  1  0  0  0  0
  8 10  1  0  0  0  0
  8 27  1  0  0  0  0
  8 28  1  0  0  0  0
  9 29  1  0  0  0  0
  9 30  1  0  0  0  0
 10 31  1  0  0  0  0
 10 32  1  0  0  0  0
 11 14  2  0  0  0  0
 11 15  1  0  0  0  0
 12 13  1  0  0  0  0
 12 16  2  0  0  0  0
 12 17  1  0  0  0  0
 14 18  1  0  0  0  0
 14 33  1  0  0  0  0
 15 19  2  0  0  0  0
 15 34  1  0  0  0  0
 16 21  1  0  0  0  0
 17 22  2  0  0  0  0
 17 35  1  0  0  0  0
 18 20  2  0  0  0  0
 18 36  1  0  0  0  0
 19 20  1  0  0  0  0
 19 37  1  0  0  0  0
 21 23  2  0  0  0  0
 21 38  1  0  0  0  0
 22 23  1  0  0  0  0
 22 39  1  0  0  0  0
 24 41  1  0  0  0  0
 24 42  1  0  0  0  0
 24 43  1  0  0  0  0
M  END
> <PUBCHEM_COMPOUND_CID>
19097186

> <PUBCHEM_COMPOUND_CANONICALIZED>
1

> <PUBCHEM_CACTVS_COMPLEXITY>
367

> <PUBCHEM_CACTVS_HBOND_ACCEPTOR>
6

> <PUBCHEM_CACTVS_HBOND_DONOR>
2

> <PUBCHEM_CACTVS_ROTATABLE_BOND>
9

> <PUBCHEM_CACTVS_SUBSKEYS>
AAADceB4OAAAAAAAAAAAAAAAAAAAAAAAAAAwYAAAAAAAAAABQAAAGgAACAAADASgmAIyDoAABgCIAiDSCAACCAAkIAAIiAEGCMgMJzaGNRqCeWCl4BUIuYfI7CzOIQAACAAIAABCAAAQABAAAAAAAAAAAA==

> <PUBCHEM_IUPAC_OPENEYE_NAME>
4-(4-methoxyphenoxy)butyl 2,4-dihydroxybenzoate

> <PUBCHEM_IUPAC_CAS_NAME>
2,4-dihydroxybenzoic acid 4-(4-methoxyphenoxy)butyl ester

> <PUBCHEM_IUPAC_NAME_MARKUP>
4-(4-methoxyphenoxy)butyl 2,4-dihydroxybenzoate

> <PUBCHEM_IUPAC_NAME>
4-(4-methoxyphenoxy)butyl 2,4-dihydroxybenzoate

> <PUBCHEM_IUPAC_SYSTEMATIC_NAME>
4-(4-methoxyphenoxy)butyl 2,4-bis(oxidanyl)benzoate

> <PUBCHEM_IUPAC_TRADITIONAL_NAME>
2,4-dihydroxybenzoic acid 4-(4-methoxyphenoxy)butyl ester

> <PUBCHEM_IUPAC_INCHI>
InChI=1S/C18H20O6/c1-22-14-5-7-15(8-6-14)23-10-2-3-11-24-18(21)16-9-4-13(19)12-17(16)20/h4-9,12,19-20H,2-3,10-11H2,1H3

> <PUBCHEM_IUPAC_INCHIKEY>
PTPJJLDDCBTVBE-UHFFFAOYSA-N

> <PUBCHEM_XLOGP3>
5.4

> <PUBCHEM_EXACT_MASS>
332.12598835

> <PUBCHEM_MOLECULAR_FORMULA>
C18H20O6

> <PUBCHEM_MOLECULAR_WEIGHT>
332.3

> <PUBCHEM_OPENEYE_CAN_SMILES>
COC1=CC=C(C=C1)OCCCCOC(=O)C2=C(C=C(C=C2)O)O

> <PUBCHEM_OPENEYE_ISO_SMILES>
COC1=CC=C(C=C1)OCCCCOC(=O)C2=C(C=C(C=C2)O)O

> <PUBCHEM_CACTVS_TPSA>
85.2

> <PUBCHEM_MONOISOTOPIC_WEIGHT>
332.12598835

> <PUBCHEM_TOTAL_CHARGE>
0

> <PUBCHEM_HEAVY_ATOM_COUNT>
24

> <PUBCHEM_ATOM_DEF_STEREO_COUNT>
0

> <PUBCHEM_ATOM_UDEF_STEREO_COUNT>
0

> <PUBCHEM_BOND_DEF_STEREO_COUNT>
0

> <PUBCHEM_BOND_UDEF_STEREO_COUNT>
0

> <PUBCHEM_ISOTOPIC_ATOM_COUNT>
0

> <PUBCHEM_COMPONENT_COUNT>
1

> <PUBCHEM_CACTVS_TAUTO_COUNT>
-1

> <PUBCHEM_COORDINATE_TYPE>
1
5
255

> <PUBCHEM_BONDANNOTATIONS>
11  14  8
11  15  8
12  16  8
12  17  8
14  18  8
15  19  8
16  21  8
17  22  8
18  20  8
19  20  8
21  23  8
22  23  8

$$$$
