 
  -OEChem-10192103542D

 35 34  0     1  0  0  0  0  0999 V2000
    5.4641    0.0950    0.0000 O   0  0  0  0  0  0  0  0  0  0  0  0
    6.3301    2.5950    0.0000 O   0  0  0  0  0  0  0  0  0  0  0  0
    7.1962    0.0950    0.0000 O   0  0  0  0  0  0  0  0  0  0  0  0
    4.5981    2.5950    0.0000 O   0  0  0  0  0  0  0  0  0  0  0  0
    8.9282    1.0950    0.0000 O   0  0  0  0  0  0  0  0  0  0  0  0
    2.8660    1.5950    0.0000 O   0  0  0  0  0  0  0  0  0  0  0  0
    6.3301    1.5950    0.0000 C   0  0  1  0  0  0  0  0  0  0  0  0
    5.4641    1.0950    0.0000 C   0  0  1  0  0  0  0  0  0  0  0  0
    7.1962    1.0950    0.0000 C   0  0  1  0  0  0  0  0  0  0  0  0
    4.5981    1.5950    0.0000 C   0  0  2  0  0  0  0  0  0  0  0  0
    8.0622    1.5950    0.0000 C   0  0  0  0  0  0  0  0  0  0  0  0
    3.7320    1.0950    0.0000 C   0  0  0  0  0  0  0  0  0  0  0  0
    4.5981   -0.4050    0.0000 C   0  0  0  0  0  0  0  0  0  0  0  0
    2.8660   -1.4050    0.0000 C   0  0  0  0  0  0  0  0  0  0  0  0
    2.8660   -2.4050    0.0000 C   0  0  0  0  0  0  0  0  0  0  0  0
    3.7320   -0.9050    0.0000 C   0  0  0  0  0  0  0  0  0  0  0  0
    2.0000   -2.9050    0.0000 C   0  0  0  0  0  0  0  0  0  0  0  0
    6.8671    1.9050    0.0000 H   0  0  0  0  0  0  0  0  0  0  0  0
    6.0010    0.7850    0.0000 H   0  0  0  0  0  0  0  0  0  0  0  0
    6.6592    0.7850    0.0000 H   0  0  0  0  0  0  0  0  0  0  0  0
    5.1350    1.9050    0.0000 H   0  0  0  0  0  0  0  0  0  0  0  0
    8.4607    2.0700    0.0000 H   0  0  0  0  0  0  0  0  0  0  0  0
    7.6636    2.0700    0.0000 H   0  0  0  0  0  0  0  0  0  0  0  0
    6.8671    2.9050    0.0000 H   0  0  0  0  0  0  0  0  0  0  0  0
    3.7320    0.4750    0.0000 H   0  0  0  0  0  0  0  0  0  0  0  0
    7.7331   -0.2150    0.0000 H   0  0  0  0  0  0  0  0  0  0  0  0
    4.0611    2.9050    0.0000 H   0  0  0  0  0  0  0  0  0  0  0  0
    9.4651    1.4050    0.0000 H   0  0  0  0  0  0  0  0  0  0  0  0
    2.6540   -0.8224    0.0000 H   0  0  0  0  0  0  0  0  0  0  0  0
    2.2554   -1.5127    0.0000 H   0  0  0  0  0  0  0  0  0  0  0  0
    3.0781   -2.9876    0.0000 H   0  0  0  0  0  0  0  0  0  0  0  0
    3.4766   -2.2973    0.0000 H   0  0  0  0  0  0  0  0  0  0  0  0
    1.6900   -2.3681    0.0000 H   0  0  0  0  0  0  0  0  0  0  0  0
    1.4631   -3.2150    0.0000 H   0  0  0  0  0  0  0  0  0  0  0  0
    2.3100   -3.4419    0.0000 H   0  0  0  0  0  0  0  0  0  0  0  0
  8  1  1  6  0  0  0
  1 13  1  0  0  0  0
  7  2  1  6  0  0  0
  2 24  1  0  0  0  0
  9  3  1  1  0  0  0
  3 26  1  0  0  0  0
 10  4  1  6  0  0  0
  4 27  1  0  0  0  0
  5 11  1  0  0  0  0
  5 28  1  0  0  0  0
  6 12  2  0  0  0  0
  7  8  1  0  0  0  0
  7  9  1  0  0  0  0
  7 18  1  0  0  0  0
  8 10  1  0  0  0  0
  8 19  1  0  0  0  0
  9 11  1  0  0  0  0
  9 20  1  0  0  0  0
 10 12  1  0  0  0  0
 10 21  1  0  0  0  0
 11 22  1  0  0  0  0
 11 23  1  0  0  0  0
 12 25  1  0  0  0  0
 13 16  3  0  0  0  0
 14 15  1  0  0  0  0
 14 16  1  0  0  0  0
 14 29  1  0  0  0  0
 14 30  1  0  0  0  0
 15 17  1  0  0  0  0
 15 31  1  0  0  0  0
 15 32  1  0  0  0  0
 17 33  1  0  0  0  0
 17 34  1  0  0  0  0
 17 35  1  0  0  0  0
M  END
> <PUBCHEM_COMPOUND_CID>
118420837

> <PUBCHEM_COMPOUND_CANONICALIZED>
1

> <PUBCHEM_CACTVS_COMPLEXITY>
278

> <PUBCHEM_CACTVS_HBOND_ACCEPTOR>
6

> <PUBCHEM_CACTVS_HBOND_DONOR>
4

> <PUBCHEM_CACTVS_ROTATABLE_BOND>
8

> <PUBCHEM_CACTVS_SUBSKEYS>
AAADceBwOAAAAAAAAAAAAAAAAAAAAAAAAAAAAAAAAAAAAAAAAAAAGgAACAAACBSggAICAAAABgBIEAgQgAoAAAAAAAAAAAFAAAABEBYAAAAAQAAFIAADAAHKbARAAAAAAAAAAAAAAAAAAAAAAAAAAAAAAA==

> <PUBCHEM_IUPAC_OPENEYE_NAME>
(2R,3S,4R,5R)-2,4,5,6-tetrahydroxy-3-pent-1-ynoxy-hexanal

> <PUBCHEM_IUPAC_CAS_NAME>
(2R,3S,4R,5R)-2,4,5,6-tetrahydroxy-3-pent-1-ynoxyhexanal

> <PUBCHEM_IUPAC_NAME_MARKUP>
(2<I>R</I>,3<I>S</I>,4<I>R</I>,5<I>R</I>)-2,4,5,6-tetrahydroxy-3-pent-1-ynoxyhexanal

> <PUBCHEM_IUPAC_NAME>
(2R,3S,4R,5R)-2,4,5,6-tetrahydroxy-3-pent-1-ynoxyhexanal

> <PUBCHEM_IUPAC_SYSTEMATIC_NAME>
(2R,3S,4R,5R)-2,4,5,6-tetrakis(oxidanyl)-3-pent-1-ynoxy-hexanal

> <PUBCHEM_IUPAC_TRADITIONAL_NAME>
(2R,3S,4R,5R)-2,4,5,6-tetrahydroxy-3-pent-1-ynoxy-hexanal

> <PUBCHEM_IUPAC_INCHI>
InChI=1S/C11H18O6/c1-2-3-4-5-17-11(9(15)7-13)10(16)8(14)6-12/h7-12,14-16H,2-3,6H2,1H3/t8-,9+,10-,11-/m1/s1

> <PUBCHEM_IUPAC_INCHIKEY>
KNSBNHMRLCAANN-LMLFDSFASA-N

> <PUBCHEM_XLOGP3_AA>
-0.8

> <PUBCHEM_EXACT_MASS>
246.11033829

> <PUBCHEM_MOLECULAR_FORMULA>
C11H18O6

> <PUBCHEM_MOLECULAR_WEIGHT>
246.26

> <PUBCHEM_OPENEYE_CAN_SMILES>
CCCC#COC(C(C=O)O)C(C(CO)O)O

> <PUBCHEM_OPENEYE_ISO_SMILES>
CCCC#CO[C@H]([C@H](C=O)O)[C@@H]([C@@H](CO)O)O

> <PUBCHEM_CACTVS_TPSA>
107

> <PUBCHEM_MONOISOTOPIC_WEIGHT>
246.11033829

> <PUBCHEM_TOTAL_CHARGE>
0

> <PUBCHEM_HEAVY_ATOM_COUNT>
17

> <PUBCHEM_ATOM_DEF_STEREO_COUNT>
4

> <PUBCHEM_ATOM_UDEF_STEREO_COUNT>
0

> <PUBCHEM_BOND_DEF_STEREO_COUNT>
0

> <PUBCHEM_BOND_UDEF_STEREO_COUNT>
0

> <PUBCHEM_ISOTOPIC_ATOM_COUNT>
0

> <PUBCHEM_COMPONENT_COUNT>
1

> <PUBCHEM_CACTVS_TAUTO_COUNT>
-1

> <PUBCHEM_COORDINATE_TYPE>
1
5
255

> <PUBCHEM_BONDANNOTATIONS>
8  1  6
7  2  6
9  3  5
10  4  6

$$$$
