 
  -OEChem-10192103532D

 56 56  0     0  0  0  0  0  0999 V2000
   10.6603    1.0000    0.0000 O   0  0  0  0  0  0  0  0  0  0  0  0
   14.9904    0.5000    0.0000 O   0  0  0  0  0  0  0  0  0  0  0  0
    8.0622    0.5000    0.0000 O   0  0  0  0  0  0  0  0  0  0  0  0
   17.5885   -2.0000    0.0000 O   0  0  0  0  0  0  0  0  0  0  0  0
   19.3205   -1.0000    0.0000 O   0  0  0  0  0  0  0  0  0  0  0  0
    5.4641    1.0000    0.0000 O   0  0  0  0  0  0  0  0  0  0  0  0
   14.1244    2.0000    0.0000 O   0  0  0  0  0  0  0  0  0  0  0  0
   18.4545    2.5000    0.0000 O   0  5  0  0  0  0  0  0  0  0  0  0
   16.7224    2.5000    0.0000 O   0  0  0  0  0  0  0  0  0  0  0  0
   13.2583    0.5000    0.0000 N   0  0  0  0  0  0  0  0  0  0  0  0
   17.5885    2.0000    0.0000 N   0  3  0  0  0  0  0  0  0  0  0  0
    3.7320    1.0000    0.0000 N   0  0  0  0  0  0  0  0  0  0  0  0
    2.8660    0.5000    0.0000 N   0  3  0  0  0  0  0  0  0  0  0  0
    2.0000    0.0000    0.0000 N   0  5  0  0  0  0  0  0  0  0  0  0
   16.7224    0.5000    0.0000 C   0  0  0  0  0  0  0  0  0  0  0  0
   17.5885    1.0000    0.0000 C   0  0  0  0  0  0  0  0  0  0  0  0
   15.8564    1.0000    0.0000 C   0  0  0  0  0  0  0  0  0  0  0  0
   16.7224   -0.5000    0.0000 C   0  0  0  0  0  0  0  0  0  0  0  0
   12.3923    1.0000    0.0000 C   0  0  0  0  0  0  0  0  0  0  0  0
   11.5263    0.5000    0.0000 C   0  0  0  0  0  0  0  0  0  0  0  0
   17.5885   -1.0000    0.0000 C   0  0  0  0  0  0  0  0  0  0  0  0
    9.7942    0.5000    0.0000 C   0  0  0  0  0  0  0  0  0  0  0  0
   18.4545   -0.5000    0.0000 C   0  0  0  0  0  0  0  0  0  0  0  0
   18.4545    0.5000    0.0000 C   0  0  0  0  0  0  0  0  0  0  0  0
    8.9282    1.0000    0.0000 C   0  0  0  0  0  0  0  0  0  0  0  0
    7.1962    1.0000    0.0000 C   0  0  0  0  0  0  0  0  0  0  0  0
   14.1244    1.0000    0.0000 C   0  0  0  0  0  0  0  0  0  0  0  0
    6.3301    0.5000    0.0000 C   0  0  0  0  0  0  0  0  0  0  0  0
   16.7224   -2.5000    0.0000 C   0  0  0  0  0  0  0  0  0  0  0  0
   20.1865   -0.5000    0.0000 C   0  0  0  0  0  0  0  0  0  0  0  0
    4.5981    0.5000    0.0000 C   0  0  0  0  0  0  0  0  0  0  0  0
   16.2549    1.4750    0.0000 H   0  0  0  0  0  0  0  0  0  0  0  0
   15.4579    1.4750    0.0000 H   0  0  0  0  0  0  0  0  0  0  0  0
   16.1855   -0.8100    0.0000 H   0  0  0  0  0  0  0  0  0  0  0  0
   12.7908    1.4750    0.0000 H   0  0  0  0  0  0  0  0  0  0  0  0
   11.9938    1.4750    0.0000 H   0  0  0  0  0  0  0  0  0  0  0  0
   11.1278    0.0251    0.0000 H   0  0  0  0  0  0  0  0  0  0  0  0
   11.9248    0.0251    0.0000 H   0  0  0  0  0  0  0  0  0  0  0  0
    9.3957    0.0251    0.0000 H   0  0  0  0  0  0  0  0  0  0  0  0
   10.1928    0.0251    0.0000 H   0  0  0  0  0  0  0  0  0  0  0  0
   18.9914    0.8100    0.0000 H   0  0  0  0  0  0  0  0  0  0  0  0
    9.3267    1.4750    0.0000 H   0  0  0  0  0  0  0  0  0  0  0  0
    8.5297    1.4750    0.0000 H   0  0  0  0  0  0  0  0  0  0  0  0
   13.2583   -0.1200    0.0000 H   0  0  0  0  0  0  0  0  0  0  0  0
    7.5947    1.4750    0.0000 H   0  0  0  0  0  0  0  0  0  0  0  0
    6.7976    1.4750    0.0000 H   0  0  0  0  0  0  0  0  0  0  0  0
    5.9316    0.0251    0.0000 H   0  0  0  0  0  0  0  0  0  0  0  0
    6.7287    0.0251    0.0000 H   0  0  0  0  0  0  0  0  0  0  0  0
   16.4124   -1.9631    0.0000 H   0  0  0  0  0  0  0  0  0  0  0  0
   16.1855   -2.8100    0.0000 H   0  0  0  0  0  0  0  0  0  0  0  0
   17.0324   -3.0369    0.0000 H   0  0  0  0  0  0  0  0  0  0  0  0
   20.4965   -1.0369    0.0000 H   0  0  0  0  0  0  0  0  0  0  0  0
   20.7235   -0.1900    0.0000 H   0  0  0  0  0  0  0  0  0  0  0  0
   19.8765    0.0369    0.0000 H   0  0  0  0  0  0  0  0  0  0  0  0
    4.1996    0.0251    0.0000 H   0  0  0  0  0  0  0  0  0  0  0  0
    4.9966    0.0251    0.0000 H   0  0  0  0  0  0  0  0  0  0  0  0
  1 20  1  0  0  0  0
  1 22  1  0  0  0  0
  2 17  1  0  0  0  0
  2 27  1  0  0  0  0
  3 25  1  0  0  0  0
  3 26  1  0  0  0  0
  4 21  1  0  0  0  0
  4 29  1  0  0  0  0
  5 23  1  0  0  0  0
  5 30  1  0  0  0  0
  6 28  1  0  0  0  0
  6 31  1  0  0  0  0
  7 27  2  0  0  0  0
  8 11  1  0  0  0  0
  9 11  2  0  0  0  0
 10 19  1  0  0  0  0
 10 27  1  0  0  0  0
 10 44  1  0  0  0  0
 11 16  1  0  0  0  0
 12 13  2  0  0  0  0
 12 31  1  0  0  0  0
 13 14  2  0  0  0  0
 15 16  1  0  0  0  0
 15 17  1  0  0  0  0
 15 18  2  0  0  0  0
 16 24  2  0  0  0  0
 17 32  1  0  0  0  0
 17 33  1  0  0  0  0
 18 21  1  0  0  0  0
 18 34  1  0  0  0  0
 19 20  1  0  0  0  0
 19 35  1  0  0  0  0
 19 36  1  0  0  0  0
 20 37  1  0  0  0  0
 20 38  1  0  0  0  0
 21 23  2  0  0  0  0
 22 25  1  0  0  0  0
 22 39  1  0  0  0  0
 22 40  1  0  0  0  0
 23 24  1  0  0  0  0
 24 41  1  0  0  0  0
 25 42  1  0  0  0  0
 25 43  1  0  0  0  0
 26 28  1  0  0  0  0
 26 45  1  0  0  0  0
 26 46  1  0  0  0  0
 28 47  1  0  0  0  0
 28 48  1  0  0  0  0
 29 49  1  0  0  0  0
 29 50  1  0  0  0  0
 29 51  1  0  0  0  0
 30 52  1  0  0  0  0
 30 53  1  0  0  0  0
 30 54  1  0  0  0  0
 31 55  1  0  0  0  0
 31 56  1  0  0  0  0
M  CHG  4   8  -1  11   1  13   1  14  -1
M  END
> <PUBCHEM_COMPOUND_CID>
102076958

> <PUBCHEM_COMPOUND_CANONICALIZED>
1

> <PUBCHEM_CACTVS_COMPLEXITY>
571

> <PUBCHEM_CACTVS_HBOND_ACCEPTOR>
11

> <PUBCHEM_CACTVS_HBOND_DONOR>
1

> <PUBCHEM_CACTVS_ROTATABLE_BOND>
16

> <PUBCHEM_CACTVS_SUBSKEYS>
AAADceB7vAAAAAAAAAAAAAAAAAAAAAAAAAAwAAAAAAAAAAABAAAAHgAcAAAADAzhmAYyzoLQRACLAiRCWwCCCAAgIgAgiIAO7IsPJiKEsZuLMCJm1hka6Afw8D0OIEABAgACQABAgAIEAASAAAAAAAAAAA==

> <PUBCHEM_IUPAC_OPENEYE_NAME>
(4,5-dimethoxy-2-nitro-phenyl)methyl N-[2-[2-[2-(azidomethoxy)ethoxy]ethoxy]ethyl]carbamate

> <PUBCHEM_IUPAC_CAS_NAME>
N-[2-[2-[2-(azidomethoxy)ethoxy]ethoxy]ethyl]carbamic acid (4,5-dimethoxy-2-nitrophenyl)methyl ester

> <PUBCHEM_IUPAC_NAME_MARKUP>
(4,5-dimethoxy-2-nitrophenyl)methyl <I>N</I>-[2-[2-[2-(azidomethoxy)ethoxy]ethoxy]ethyl]carbamate

> <PUBCHEM_IUPAC_NAME>
(4,5-dimethoxy-2-nitrophenyl)methyl N-[2-[2-[2-(azidomethoxy)ethoxy]ethoxy]ethyl]carbamate

> <PUBCHEM_IUPAC_SYSTEMATIC_NAME>
(4,5-dimethoxy-2-nitro-phenyl)methyl N-[2-[2-[2-(azidomethoxy)ethoxy]ethoxy]ethyl]carbamate

> <PUBCHEM_IUPAC_TRADITIONAL_NAME>
N-[2-[2-[2-(azidomethoxy)ethoxy]ethoxy]ethyl]carbamic acid (4,5-dimethoxy-2-nitro-benzyl) ester

> <PUBCHEM_IUPAC_INCHI>
InChI=1S/C17H25N5O9/c1-26-15-9-13(14(22(24)25)10-16(15)27-2)11-31-17(23)19-3-4-28-5-6-29-7-8-30-12-20-21-18/h9-10H,3-8,11-12H2,1-2H3,(H,19,23)

> <PUBCHEM_IUPAC_INCHIKEY>
MYDYCYMEKMLQLB-UHFFFAOYSA-N

> <PUBCHEM_XLOGP3_AA>
1.8

> <PUBCHEM_EXACT_MASS>
443.16522739

> <PUBCHEM_MOLECULAR_FORMULA>
C17H25N5O9

> <PUBCHEM_MOLECULAR_WEIGHT>
443.4

> <PUBCHEM_OPENEYE_CAN_SMILES>
COC1=C(C=C(C(=C1)COC(=O)NCCOCCOCCOCN=[N+]=[N-])[N+](=O)[O-])OC

> <PUBCHEM_OPENEYE_ISO_SMILES>
COC1=C(C=C(C(=C1)COC(=O)NCCOCCOCCOCN=[N+]=[N-])[N+](=O)[O-])OC

> <PUBCHEM_CACTVS_TPSA>
145

> <PUBCHEM_MONOISOTOPIC_WEIGHT>
443.16522739

> <PUBCHEM_TOTAL_CHARGE>
0

> <PUBCHEM_HEAVY_ATOM_COUNT>
31

> <PUBCHEM_ATOM_DEF_STEREO_COUNT>
0

> <PUBCHEM_ATOM_UDEF_STEREO_COUNT>
0

> <PUBCHEM_BOND_DEF_STEREO_COUNT>
0

> <PUBCHEM_BOND_UDEF_STEREO_COUNT>
1

> <PUBCHEM_ISOTOPIC_ATOM_COUNT>
0

> <PUBCHEM_COMPONENT_COUNT>
1

> <PUBCHEM_CACTVS_TAUTO_COUNT>
-1

> <PUBCHEM_COORDINATE_TYPE>
1
5
255

> <PUBCHEM_BONDANNOTATIONS>
12  13  1
15  16  8
15  18  8
16  24  8
18  21  8
21  23  8
23  24  8

$$$$
