 
  -OEChem-10192104082D

 23 23  0     1  0  0  0  0  0999 V2000
    5.4860   -0.8476    0.0000 O   0  0  0  0  0  0  0  0  0  0  0  0
    4.6200   -1.3476    0.0000 O   0  0  0  0  0  0  0  0  0  0  0  0
    6.4860    0.8845    0.0000 O   0  0  0  0  0  0  0  0  0  0  0  0
    2.6200   -1.3476    0.0000 O   0  0  0  0  0  0  0  0  0  0  0  0
    5.4860    1.8845    0.0000 O   0  0  0  0  0  0  0  0  0  0  0  0
    2.2540    0.0185    0.0000 O   0  0  0  0  0  0  0  0  0  0  0  0
    4.1200    0.5185    0.0000 C   0  0  0  0  0  0  0  0  0  0  0  0
    4.9860    0.0185    0.0000 C   0  0  3  0  0  0  0  0  0  0  0  0
    4.1200   -0.4815    0.0000 C   0  0  3  0  0  0  0  0  0  0  0  0
    4.1200    1.5185    0.0000 C   0  0  0  0  0  0  0  0  0  0  0  0
    3.2540    1.0186    0.0000 C   0  0  0  0  0  0  0  0  0  0  0  0
    5.4860    0.8845    0.0000 C   0  0  0  0  0  0  0  0  0  0  0  0
    3.1200   -0.4815    0.0000 C   0  0  0  0  0  0  0  0  0  0  0  0
    4.7400    1.5185    0.0000 H   0  0  0  0  0  0  0  0  0  0  0  0
    4.1200    2.1385    0.0000 H   0  0  0  0  0  0  0  0  0  0  0  0
    3.5000    1.5185    0.0000 H   0  0  0  0  0  0  0  0  0  0  0  0
    3.5641    1.5555    0.0000 H   0  0  0  0  0  0  0  0  0  0  0  0
    2.7171    1.3286    0.0000 H   0  0  0  0  0  0  0  0  0  0  0  0
    2.9440    0.4816    0.0000 H   0  0  0  0  0  0  0  0  0  0  0  0
    6.1060   -0.8476    0.0000 H   0  0  0  0  0  0  0  0  0  0  0  0
    4.3100   -1.8845    0.0000 H   0  0  0  0  0  0  0  0  0  0  0  0
    6.7960    1.4214    0.0000 H   0  0  0  0  0  0  0  0  0  0  0  0
    2.0000   -1.3476    0.0000 H   0  0  0  0  0  0  0  0  0  0  0  0
  1  8  1  0  0  0  0
  1 20  1  0  0  0  0
  2  9  1  0  0  0  0
  2 21  1  0  0  0  0
  3 12  1  0  0  0  0
  3 22  1  0  0  0  0
  4 13  1  0  0  0  0
  4 23  1  0  0  0  0
  5 12  2  0  0  0  0
  6 13  2  0  0  0  0
  7  8  1  0  0  0  0
  7  9  1  0  0  0  0
  7 10  1  0  0  0  0
  7 11  1  0  0  0  0
  8  9  1  0  0  0  0
  8 12  1  0  0  0  0
  9 13  1  0  0  0  0
 10 14  1  0  0  0  0
 10 15  1  0  0  0  0
 10 16  1  0  0  0  0
 11 17  1  0  0  0  0
 11 18  1  0  0  0  0
 11 19  1  0  0  0  0
M  END
> <PUBCHEM_COMPOUND_CID>
67562425

> <PUBCHEM_COMPOUND_CANONICALIZED>
1

> <PUBCHEM_CACTVS_COMPLEXITY>
267

> <PUBCHEM_CACTVS_HBOND_ACCEPTOR>
6

> <PUBCHEM_CACTVS_HBOND_DONOR>
4

> <PUBCHEM_CACTVS_ROTATABLE_BOND>
2

> <PUBCHEM_CACTVS_SUBSKEYS>
AAADccBgOAAAAAAAAAAAAAAAGAAAAAAAAAAAAAAAAAAAAAAAAAAAGgAACAAADkSAgAACCAAAAgAIAACQCAIAAAAAAAAAAAFAAAABABYAAAAAQAAFIAABAADLJgAPgAAAAAAAAAAAAAAAAAAAAAAAAAAAAA==

> <PUBCHEM_IUPAC_OPENEYE_NAME>
1,2-dihydroxy-3,3-dimethyl-cyclopropane-1,2-dicarboxylic acid

> <PUBCHEM_IUPAC_CAS_NAME>
1,2-dihydroxy-3,3-dimethylcyclopropane-1,2-dicarboxylic acid

> <PUBCHEM_IUPAC_NAME_MARKUP>
1,2-dihydroxy-3,3-dimethylcyclopropane-1,2-dicarboxylic acid

> <PUBCHEM_IUPAC_NAME>
1,2-dihydroxy-3,3-dimethylcyclopropane-1,2-dicarboxylic acid

> <PUBCHEM_IUPAC_SYSTEMATIC_NAME>
3,3-dimethyl-1,2-bis(oxidanyl)cyclopropane-1,2-dicarboxylic acid

> <PUBCHEM_IUPAC_TRADITIONAL_NAME>
1,2-dihydroxy-3,3-dimethyl-cyclopropane-1,2-dicarboxylic acid

> <PUBCHEM_IUPAC_INCHI>
InChI=1S/C7H10O6/c1-5(2)6(12,3(8)9)7(5,13)4(10)11/h12-13H,1-2H3,(H,8,9)(H,10,11)

> <PUBCHEM_IUPAC_INCHIKEY>
ZLLZPGJPVNPJDP-UHFFFAOYSA-N

> <PUBCHEM_XLOGP3_AA>
-0.2

> <PUBCHEM_EXACT_MASS>
190.04773803

> <PUBCHEM_MOLECULAR_FORMULA>
C7H10O6

> <PUBCHEM_MOLECULAR_WEIGHT>
190.15

> <PUBCHEM_OPENEYE_CAN_SMILES>
CC1(C(C1(C(=O)O)O)(C(=O)O)O)C

> <PUBCHEM_OPENEYE_ISO_SMILES>
CC1(C(C1(C(=O)O)O)(C(=O)O)O)C

> <PUBCHEM_CACTVS_TPSA>
115

> <PUBCHEM_MONOISOTOPIC_WEIGHT>
190.04773803

> <PUBCHEM_TOTAL_CHARGE>
0

> <PUBCHEM_HEAVY_ATOM_COUNT>
13

> <PUBCHEM_ATOM_DEF_STEREO_COUNT>
0

> <PUBCHEM_ATOM_UDEF_STEREO_COUNT>
2

> <PUBCHEM_BOND_DEF_STEREO_COUNT>
0

> <PUBCHEM_BOND_UDEF_STEREO_COUNT>
0

> <PUBCHEM_ISOTOPIC_ATOM_COUNT>
0

> <PUBCHEM_COMPONENT_COUNT>
1

> <PUBCHEM_CACTVS_TAUTO_COUNT>
-1

> <PUBCHEM_COORDINATE_TYPE>
1
5
255

> <PUBCHEM_BONDANNOTATIONS>
8  1  3
9  2  3

$$$$
