 
  -OEChem-10192104382D

 78 82  0     1  0  0  0  0  0999 V2000
    8.2082   -1.8442    0.0000 O   0  0  0  0  0  0  0  0  0  0  0  0
   11.2768   -1.8442    0.0000 O   0  0  0  0  0  0  0  0  0  0  0  0
    9.5162    2.3532    0.0000 O   0  0  0  0  0  0  0  0  0  0  0  0
    7.5599    2.7690    0.0000 O   0  0  0  0  0  0  0  0  0  0  0  0
    9.9788   -6.0386    0.0000 O   0  0  0  0  0  0  0  0  0  0  0  0
   11.9359   -6.4510    0.0000 O   0  0  0  0  0  0  0  0  0  0  0  0
    6.9418    4.6712    0.0000 O   0  0  0  0  0  0  0  0  0  0  0  0
    4.9344    2.4417    0.0000 O   0  0  0  0  0  0  0  0  0  0  0  0
    3.6984    6.2460    0.0000 O   0  0  0  0  0  0  0  0  0  0  0  0
    2.9782    2.8575    0.0000 O   0  0  0  0  0  0  0  0  0  0  0  0
    2.3601    4.7597    0.0000 O   0  0  0  0  0  0  0  0  0  0  0  0
    9.7470   -1.3442    0.0000 C   0  0  2  0  0  0  0  0  0  0  0  0
    9.7470   -2.3442    0.0000 C   0  0  2  0  0  0  0  0  0  0  0  0
    8.7959   -1.0352    0.0000 C   0  0  2  0  0  0  0  0  0  0  0  0
   10.6932   -2.6489    0.0000 C   0  0  2  0  0  0  0  0  0  0  0  0
    8.7959   -2.6532    0.0000 C   0  0  0  0  0  0  0  0  0  0  0  0
   10.6932   -1.0395    0.0000 C   0  0  0  0  0  0  0  0  0  0  0  0
    8.4869   -0.0841    0.0000 C   0  0  0  0  0  0  0  0  0  0  0  0
   11.0039   -3.5994    0.0000 C   0  0  0  0  0  0  0  0  0  0  0  0
    9.1560    0.6590    0.0000 C   0  0  0  0  0  0  0  0  0  0  0  0
    7.5088    0.1238    0.0000 C   0  0  0  0  0  0  0  0  0  0  0  0
   10.3360   -4.3438    0.0000 C   0  0  0  0  0  0  0  0  0  0  0  0
   11.9824   -3.8057    0.0000 C   0  0  0  0  0  0  0  0  0  0  0  0
    8.8470    1.6101    0.0000 C   0  0  0  0  0  0  0  0  0  0  0  0
    7.1998    1.0748    0.0000 C   0  0  0  0  0  0  0  0  0  0  0  0
   10.6467   -5.2943    0.0000 C   0  0  0  0  0  0  0  0  0  0  0  0
   12.2930   -4.7562    0.0000 C   0  0  0  0  0  0  0  0  0  0  0  0
    7.8689    1.8180    0.0000 C   0  0  0  0  0  0  0  0  0  0  0  0
   11.6252   -5.5005    0.0000 C   0  0  0  0  0  0  0  0  0  0  0  0
    6.5817    2.9770    0.0000 C   0  0  3  0  0  0  0  0  0  0  0  0
    6.2727    3.9280    0.0000 C   0  0  3  0  0  0  0  0  0  0  0  0
    9.2072    3.3043    0.0000 C   0  0  0  0  0  0  0  0  0  0  0  0
   10.2895   -6.9891    0.0000 C   0  0  0  0  0  0  0  0  0  0  0  0
    5.9126    2.2338    0.0000 C   0  0  0  0  0  0  0  0  0  0  0  0
    5.2946    4.1359    0.0000 C   0  0  0  0  0  0  0  0  0  0  0  0
    4.6254    3.3928    0.0000 C   0  0  0  0  0  0  0  0  0  0  0  0
    4.9855    5.0870    0.0000 C   0  0  0  0  0  0  0  0  0  0  0  0
    4.0074    5.2949    0.0000 C   0  0  0  0  0  0  0  0  0  0  0  0
    3.6473    3.6007    0.0000 C   0  0  0  0  0  0  0  0  0  0  0  0
    3.3383    4.5518    0.0000 C   0  0  0  0  0  0  0  0  0  0  0  0
    4.3675    6.9891    0.0000 C   0  0  0  0  0  0  0  0  0  0  0  0
    2.0000    3.0655    0.0000 C   0  0  0  0  0  0  0  0  0  0  0  0
    9.7481   -0.4942    0.0000 H   0  0  0  0  0  0  0  0  0  0  0  0
    9.7481   -3.1942    0.0000 H   0  0  0  0  0  0  0  0  0  0  0  0
    8.1836   -0.9382    0.0000 H   0  0  0  0  0  0  0  0  0  0  0  0
   11.3057   -2.7451    0.0000 H   0  0  0  0  0  0  0  0  0  0  0  0
    8.2590   -2.9632    0.0000 H   0  0  0  0  0  0  0  0  0  0  0  0
    9.0481   -3.2196    0.0000 H   0  0  0  0  0  0  0  0  0  0  0  0
   11.2306   -0.7302    0.0000 H   0  0  0  0  0  0  0  0  0  0  0  0
   10.4422   -0.4726    0.0000 H   0  0  0  0  0  0  0  0  0  0  0  0
    9.7625    0.5301    0.0000 H   0  0  0  0  0  0  0  0  0  0  0  0
    7.0939   -0.3370    0.0000 H   0  0  0  0  0  0  0  0  0  0  0  0
    9.7294   -4.2159    0.0000 H   0  0  0  0  0  0  0  0  0  0  0  0
   12.3964   -3.3442    0.0000 H   0  0  0  0  0  0  0  0  0  0  0  0
    6.5933    1.2038    0.0000 H   0  0  0  0  0  0  0  0  0  0  0  0
   12.8997   -4.8840    0.0000 H   0  0  0  0  0  0  0  0  0  0  0  0
    6.7733    2.3873    0.0000 H   0  0  0  0  0  0  0  0  0  0  0  0
   12.5425   -6.5789    0.0000 H   0  0  0  0  0  0  0  0  0  0  0  0
    6.8792    3.7991    0.0000 H   0  0  0  0  0  0  0  0  0  0  0  0
    9.7968    3.4959    0.0000 H   0  0  0  0  0  0  0  0  0  0  0  0
    9.0156    3.8939    0.0000 H   0  0  0  0  0  0  0  0  0  0  0  0
    8.6175    3.1127    0.0000 H   0  0  0  0  0  0  0  0  0  0  0  0
    9.7002   -7.1817    0.0000 H   0  0  0  0  0  0  0  0  0  0  0  0
   10.4821   -7.5784    0.0000 H   0  0  0  0  0  0  0  0  0  0  0  0
   10.8788   -6.7965    0.0000 H   0  0  0  0  0  0  0  0  0  0  0  0
    5.6803    1.6590    0.0000 H   0  0  0  0  0  0  0  0  0  0  0  0
    6.4384    1.9053    0.0000 H   0  0  0  0  0  0  0  0  0  0  0  0
    6.7502    5.2608    0.0000 H   0  0  0  0  0  0  0  0  0  0  0  0
    4.8170    2.8031    0.0000 H   0  0  0  0  0  0  0  0  0  0  0  0
    5.4004    5.5477    0.0000 H   0  0  0  0  0  0  0  0  0  0  0  0
    4.5196    1.9810    0.0000 H   0  0  0  0  0  0  0  0  0  0  0  0
    2.1685    5.3493    0.0000 H   0  0  0  0  0  0  0  0  0  0  0  0
    4.8283    6.5742    0.0000 H   0  0  0  0  0  0  0  0  0  0  0  0
    4.7824    7.4498    0.0000 H   0  0  0  0  0  0  0  0  0  0  0  0
    3.9068    7.4040    0.0000 H   0  0  0  0  0  0  0  0  0  0  0  0
    2.1289    3.6719    0.0000 H   0  0  0  0  0  0  0  0  0  0  0  0
    1.3936    3.1944    0.0000 H   0  0  0  0  0  0  0  0  0  0  0  0
    1.8711    2.4590    0.0000 H   0  0  0  0  0  0  0  0  0  0  0  0
  1 14  1  0  0  0  0
  1 16  1  0  0  0  0
  2 15  1  0  0  0  0
  2 17  1  0  0  0  0
  3 24  1  0  0  0  0
  3 32  1  0  0  0  0
  4 28  1  0  0  0  0
  4 30  1  0  0  0  0
  5 26  1  0  0  0  0
  5 33  1  0  0  0  0
  6 29  1  0  0  0  0
  6 58  1  0  0  0  0
  7 31  1  0  0  0  0
  7 68  1  0  0  0  0
  8 34  1  0  0  0  0
  8 71  1  0  0  0  0
  9 38  1  0  0  0  0
  9 41  1  0  0  0  0
 10 39  1  0  0  0  0
 10 42  1  0  0  0  0
 11 40  1  0  0  0  0
 11 72  1  0  0  0  0
 12 13  1  0  0  0  0
 12 14  1  0  0  0  0
 12 17  1  0  0  0  0
 12 43  1  1  0  0  0
 13 15  1  0  0  0  0
 13 16  1  0  0  0  0
 13 44  1  1  0  0  0
 14 18  1  1  0  0  0
 14 45  1  0  0  0  0
 15 19  1  1  0  0  0
 15 46  1  0  0  0  0
 16 47  1  0  0  0  0
 16 48  1  0  0  0  0
 17 49  1  0  0  0  0
 17 50  1  0  0  0  0
 18 20  2  0  0  0  0
 18 21  1  0  0  0  0
 19 22  2  0  0  0  0
 19 23  1  0  0  0  0
 20 24  1  0  0  0  0
 20 51  1  0  0  0  0
 21 25  2  0  0  0  0
 21 52  1  0  0  0  0
 22 26  1  0  0  0  0
 22 53  1  0  0  0  0
 23 27  2  0  0  0  0
 23 54  1  0  0  0  0
 24 28  2  0  0  0  0
 25 28  1  0  0  0  0
 25 55  1  0  0  0  0
 26 29  2  0  0  0  0
 27 29  1  0  0  0  0
 27 56  1  0  0  0  0
 30 31  1  0  0  0  0
 30 34  1  0  0  0  0
 30 57  1  0  0  0  0
 31 35  1  0  0  0  0
 31 59  1  0  0  0  0
 32 60  1  0  0  0  0
 32 61  1  0  0  0  0
 32 62  1  0  0  0  0
 33 63  1  0  0  0  0
 33 64  1  0  0  0  0
 33 65  1  0  0  0  0
 34 66  1  0  0  0  0
 34 67  1  0  0  0  0
 35 36  2  0  0  0  0
 35 37  1  0  0  0  0
 36 39  1  0  0  0  0
 36 69  1  0  0  0  0
 37 38  2  0  0  0  0
 37 70  1  0  0  0  0
 38 40  1  0  0  0  0
 39 40  2  0  0  0  0
 41 73  1  0  0  0  0
 41 74  1  0  0  0  0
 41 75  1  0  0  0  0
 42 76  1  0  0  0  0
 42 77  1  0  0  0  0
 42 78  1  0  0  0  0
M  END
> <PUBCHEM_COMPOUND_CID>
71726069

> <PUBCHEM_COMPOUND_CANONICALIZED>
1

> <PUBCHEM_CACTVS_COMPLEXITY>
819

> <PUBCHEM_CACTVS_HBOND_ACCEPTOR>
11

> <PUBCHEM_CACTVS_HBOND_DONOR>
4

> <PUBCHEM_CACTVS_ROTATABLE_BOND>
11

> <PUBCHEM_CACTVS_SUBSKEYS>
AAADcfB4PAAAAAAAAAAAAAAAAAAAASJAAAAwYMAAAAASAAABUAAAGgAACAAADRSgmAIyBoAABgCAAiBCAAACCAAgIAAIiAAGiIgNNyKGMRqCeCOlwBULuAfA4PwOoAABCAAAQABAAAIQAACAAAAAAAAAAA==

> <PUBCHEM_IUPAC_OPENEYE_NAME>
2-[4-[(3R,3aS,6R,6aS)-3-(4-hydroxy-3-methoxy-phenyl)-1,3,3a,4,6,6a-hexahydrofuro[3,4-c]furan-6-yl]-2-methoxy-phenoxy]-1-(4-hydroxy-3,5-dimethoxy-phenyl)propane-1,3-diol

> <PUBCHEM_IUPAC_CAS_NAME>
2-[4-[(3R,3aS,6R,6aS)-3-(4-hydroxy-3-methoxyphenyl)-1,3,3a,4,6,6a-hexahydrofuro[3,4-c]furan-6-yl]-2-methoxyphenoxy]-1-(4-hydroxy-3,5-dimethoxyphenyl)propane-1,3-diol

> <PUBCHEM_IUPAC_NAME_MARKUP>
2-[4-[(3<I>R</I>,3<I>a</I><I>S</I>,6<I>R</I>,6<I>a</I><I>S</I>)-3-(4-hydroxy-3-methoxyphenyl)-1,3,3<I>a</I>,4,6,6<I>a</I>-hexahydrofuro[3,4-c]furan-6-yl]-2-methoxyphenoxy]-1-(4-hydroxy-3,5-dimethoxyphenyl)propane-1,3-diol

> <PUBCHEM_IUPAC_NAME>
2-[4-[(3R,3aS,6R,6aS)-3-(4-hydroxy-3-methoxyphenyl)-1,3,3a,4,6,6a-hexahydrofuro[3,4-c]furan-6-yl]-2-methoxyphenoxy]-1-(4-hydroxy-3,5-dimethoxyphenyl)propane-1,3-diol

> <PUBCHEM_IUPAC_SYSTEMATIC_NAME>
2-[4-[(3R,3aS,6R,6aS)-3-(3-methoxy-4-oxidanyl-phenyl)-1,3,3a,4,6,6a-hexahydrofuro[3,4-c]furan-6-yl]-2-methoxy-phenoxy]-1-(3,5-dimethoxy-4-oxidanyl-phenyl)propane-1,3-diol

> <PUBCHEM_IUPAC_TRADITIONAL_NAME>
2-[4-[(3R,3aS,6R,6aS)-3-(4-hydroxy-3-methoxy-phenyl)-1,3,3a,4,6,6a-hexahydrofuro[3,4-c]furan-6-yl]-2-methoxy-phenoxy]-1-(4-hydroxy-3,5-dimethoxy-phenyl)propane-1,3-diol

> <PUBCHEM_IUPAC_INCHI>
InChI=1S/C31H36O11/c1-36-23-9-16(5-7-21(23)33)30-19-14-41-31(20(19)15-40-30)17-6-8-22(24(10-17)37-2)42-27(13-32)28(34)18-11-25(38-3)29(35)26(12-18)39-4/h5-12,19-20,27-28,30-35H,13-15H2,1-4H3/t19-,20-,27?,28?,30+,31+/m1/s1

> <PUBCHEM_IUPAC_INCHIKEY>
BFUKSFXYHVDMHB-WBHAYQECSA-N

> <PUBCHEM_XLOGP3_AA>
2.4

> <PUBCHEM_EXACT_MASS>
584.22576196

> <PUBCHEM_MOLECULAR_FORMULA>
C31H36O11

> <PUBCHEM_MOLECULAR_WEIGHT>
584.6

> <PUBCHEM_OPENEYE_CAN_SMILES>
COC1=CC(=CC(=C1O)OC)C(C(CO)OC2=C(C=C(C=C2)C3C4COC(C4CO3)C5=CC(=C(C=C5)O)OC)OC)O

> <PUBCHEM_OPENEYE_ISO_SMILES>
COC1=CC(=CC(=C1O)OC)C(C(CO)OC2=C(C=C(C=C2)[C@H]3[C@@H]4CO[C@H]([C@@H]4CO3)C5=CC(=C(C=C5)O)OC)OC)O

> <PUBCHEM_CACTVS_TPSA>
146

> <PUBCHEM_MONOISOTOPIC_WEIGHT>
584.22576196

> <PUBCHEM_TOTAL_CHARGE>
0

> <PUBCHEM_HEAVY_ATOM_COUNT>
42

> <PUBCHEM_ATOM_DEF_STEREO_COUNT>
4

> <PUBCHEM_ATOM_UDEF_STEREO_COUNT>
2

> <PUBCHEM_BOND_DEF_STEREO_COUNT>
0

> <PUBCHEM_BOND_UDEF_STEREO_COUNT>
0

> <PUBCHEM_ISOTOPIC_ATOM_COUNT>
0

> <PUBCHEM_COMPONENT_COUNT>
1

> <PUBCHEM_CACTVS_TAUTO_COUNT>
-1

> <PUBCHEM_COORDINATE_TYPE>
1
5
255

> <PUBCHEM_BONDANNOTATIONS>
12  43  5
13  44  5
14  18  5
15  19  5
18  20  8
18  21  8
19  22  8
19  23  8
20  24  8
21  25  8
22  26  8
23  27  8
24  28  8
25  28  8
26  29  8
27  29  8
30  34  3
35  36  8
35  37  8
36  39  8
37  38  8
38  40  8
39  40  8
31  7  3

$$$$
