 
  -OEChem-10192104032D

 73 77  0     1  0  0  0  0  0999 V2000
    6.0623    1.0215    0.0000 O   0  0  0  0  0  0  0  0  0  0  0  0
    8.9792    1.9748    0.0000 O   0  0  0  0  0  0  0  0  0  0  0  0
    6.8671   -3.5621    0.0000 O   0  0  0  0  0  0  0  0  0  0  0  0
    5.1350   -3.5621    0.0000 O   0  0  0  0  0  0  0  0  0  0  0  0
    5.1350   -2.5621    0.0000 O   0  0  0  0  0  0  0  0  0  0  0  0
    9.8960    5.5642    0.0000 O   0  0  0  0  0  0  0  0  0  0  0  0
    6.4319    5.5582    0.0000 O   0  0  0  0  0  0  0  0  0  0  0  0
    6.8671   -5.5621    0.0000 O   0  0  0  0  0  0  0  0  0  0  0  0
    5.1350   -6.5621    0.0000 O   0  0  0  0  0  0  0  0  0  0  0  0
    3.4030   -5.5621    0.0000 O   0  0  0  0  0  0  0  0  0  0  0  0
    8.1622    6.5612    0.0000 O   0  0  0  0  0  0  0  0  0  0  0  0
    2.5369   -4.0621    0.0000 O   0  0  0  0  0  0  0  0  0  0  0  0
    7.6718    1.0215    0.0000 C   0  0  1  0  0  0  0  0  0  0  0  0
    7.3611    1.9720    0.0000 C   0  0  1  0  0  0  0  0  0  0  0  0
    6.8671    0.4379    0.0000 C   0  0  1  0  0  0  0  0  0  0  0  0
    8.1691    2.5612    0.0000 C   0  0  1  0  0  0  0  0  0  0  0  0
    6.3671    1.9677    0.0000 C   0  0  0  0  0  0  0  0  0  0  0  0
    8.6718    1.0232    0.0000 C   0  0  0  0  0  0  0  0  0  0  0  0
    6.8671   -0.5621    0.0000 C   0  0  0  0  0  0  0  0  0  0  0  0
    8.1674    3.5612    0.0000 C   0  0  0  0  0  0  0  0  0  0  0  0
    6.0010   -1.0621    0.0000 C   0  0  0  0  0  0  0  0  0  0  0  0
    7.7331   -1.0621    0.0000 C   0  0  0  0  0  0  0  0  0  0  0  0
    7.3005    4.0597    0.0000 C   0  0  0  0  0  0  0  0  0  0  0  0
    9.0326    4.0627    0.0000 C   0  0  0  0  0  0  0  0  0  0  0  0
    6.0010   -2.0621    0.0000 C   0  0  0  0  0  0  0  0  0  0  0  0
    7.7331   -2.0621    0.0000 C   0  0  0  0  0  0  0  0  0  0  0  0
    6.8671   -2.5621    0.0000 C   0  0  0  0  0  0  0  0  0  0  0  0
    9.0308    5.0627    0.0000 C   0  0  0  0  0  0  0  0  0  0  0  0
    7.2988    5.0597    0.0000 C   0  0  0  0  0  0  0  0  0  0  0  0
    6.0010   -4.0621    0.0000 C   0  0  2  0  0  0  0  0  0  0  0  0
    6.0010   -5.0621    0.0000 C   0  0  2  0  0  0  0  0  0  0  0  0
    5.1350   -5.5621    0.0000 C   0  0  1  0  0  0  0  0  0  0  0  0
    4.2690   -5.0621    0.0000 C   0  0  2  0  0  0  0  0  0  0  0  0
    4.2690   -4.0621    0.0000 C   0  0  2  0  0  0  0  0  0  0  0  0
    8.1639    5.5612    0.0000 C   0  0  0  0  0  0  0  0  0  0  0  0
    3.4030   -3.5621    0.0000 C   0  0  0  0  0  0  0  0  0  0  0  0
    4.2690   -2.0621    0.0000 C   0  0  0  0  0  0  0  0  0  0  0  0
   10.7629    5.0657    0.0000 C   0  0  0  0  0  0  0  0  0  0  0  0
    5.5667    5.0567    0.0000 C   0  0  0  0  0  0  0  0  0  0  0  0
    7.9348    0.2132    0.0000 H   0  0  0  0  0  0  0  0  0  0  0  0
    7.0960    2.7796    0.0000 H   0  0  0  0  0  0  0  0  0  0  0  0
    6.3148    0.1562    0.0000 H   0  0  0  0  0  0  0  0  0  0  0  0
    8.7211    2.8436    0.0000 H   0  0  0  0  0  0  0  0  0  0  0  0
    6.4296    2.5846    0.0000 H   0  0  0  0  0  0  0  0  0  0  0  0
    5.7602    2.0947    0.0000 H   0  0  0  0  0  0  0  0  0  0  0  0
    8.6080    0.4065    0.0000 H   0  0  0  0  0  0  0  0  0  0  0  0
    9.2785    0.8954    0.0000 H   0  0  0  0  0  0  0  0  0  0  0  0
    5.4641   -0.7521    0.0000 H   0  0  0  0  0  0  0  0  0  0  0  0
    8.2700   -0.7521    0.0000 H   0  0  0  0  0  0  0  0  0  0  0  0
    6.7641    3.7488    0.0000 H   0  0  0  0  0  0  0  0  0  0  0  0
    9.5700    3.7536    0.0000 H   0  0  0  0  0  0  0  0  0  0  0  0
    8.2700   -2.3721    0.0000 H   0  0  0  0  0  0  0  0  0  0  0  0
    6.0010   -3.4421    0.0000 H   0  0  0  0  0  0  0  0  0  0  0  0
    6.0010   -5.6821    0.0000 H   0  0  0  0  0  0  0  0  0  0  0  0
    4.5981   -5.8721    0.0000 H   0  0  0  0  0  0  0  0  0  0  0  0
    4.2690   -5.6821    0.0000 H   0  0  0  0  0  0  0  0  0  0  0  0
    4.2690   -3.4421    0.0000 H   0  0  0  0  0  0  0  0  0  0  0  0
    3.8015   -3.0872    0.0000 H   0  0  0  0  0  0  0  0  0  0  0  0
    3.0044   -3.0872    0.0000 H   0  0  0  0  0  0  0  0  0  0  0  0
    7.4040   -5.2521    0.0000 H   0  0  0  0  0  0  0  0  0  0  0  0
    5.6720   -6.8721    0.0000 H   0  0  0  0  0  0  0  0  0  0  0  0
    3.4030   -6.1821    0.0000 H   0  0  0  0  0  0  0  0  0  0  0  0
    8.6986    6.8721    0.0000 H   0  0  0  0  0  0  0  0  0  0  0  0
    4.5790   -1.5252    0.0000 H   0  0  0  0  0  0  0  0  0  0  0  0
    3.7320   -1.7521    0.0000 H   0  0  0  0  0  0  0  0  0  0  0  0
    3.9590   -2.5990    0.0000 H   0  0  0  0  0  0  0  0  0  0  0  0
    2.0000   -3.7521    0.0000 H   0  0  0  0  0  0  0  0  0  0  0  0
   10.4538    4.5282    0.0000 H   0  0  0  0  0  0  0  0  0  0  0  0
   11.3003    4.7566    0.0000 H   0  0  0  0  0  0  0  0  0  0  0  0
   11.0719    5.6032    0.0000 H   0  0  0  0  0  0  0  0  0  0  0  0
    5.2558    5.5931    0.0000 H   0  0  0  0  0  0  0  0  0  0  0  0
    5.0303    4.7458    0.0000 H   0  0  0  0  0  0  0  0  0  0  0  0
    5.8777    4.5203    0.0000 H   0  0  0  0  0  0  0  0  0  0  0  0
  1 15  1  0  0  0  0
  1 17  1  0  0  0  0
  2 16  1  0  0  0  0
  2 18  1  0  0  0  0
  3 27  1  0  0  0  0
 30  3  1  1  0  0  0
  4 30  1  0  0  0  0
  4 34  1  0  0  0  0
  5 25  1  0  0  0  0
  5 37  1  0  0  0  0
  6 28  1  0  0  0  0
  6 38  1  0  0  0  0
  7 29  1  0  0  0  0
  7 39  1  0  0  0  0
 31  8  1  1  0  0  0
  8 60  1  0  0  0  0
 32  9  1  6  0  0  0
  9 61  1  0  0  0  0
 33 10  1  1  0  0  0
 10 62  1  0  0  0  0
 11 35  1  0  0  0  0
 11 63  1  0  0  0  0
 12 36  1  0  0  0  0
 12 67  1  0  0  0  0
 13 14  1  0  0  0  0
 13 15  1  0  0  0  0
 13 18  1  0  0  0  0
 13 40  1  1  0  0  0
 14 16  1  0  0  0  0
 14 17  1  0  0  0  0
 14 41  1  1  0  0  0
 15 19  1  1  0  0  0
 15 42  1  0  0  0  0
 16 20  1  1  0  0  0
 16 43  1  0  0  0  0
 17 44  1  0  0  0  0
 17 45  1  0  0  0  0
 18 46  1  0  0  0  0
 18 47  1  0  0  0  0
 19 21  2  0  0  0  0
 19 22  1  0  0  0  0
 20 23  2  0  0  0  0
 20 24  1  0  0  0  0
 21 25  1  0  0  0  0
 21 48  1  0  0  0  0
 22 26  2  0  0  0  0
 22 49  1  0  0  0  0
 23 29  1  0  0  0  0
 23 50  1  0  0  0  0
 24 28  2  0  0  0  0
 24 51  1  0  0  0  0
 25 27  2  0  0  0  0
 26 27  1  0  0  0  0
 26 52  1  0  0  0  0
 28 35  1  0  0  0  0
 29 35  2  0  0  0  0
 30 31  1  0  0  0  0
 30 53  1  0  0  0  0
 31 32  1  0  0  0  0
 31 54  1  0  0  0  0
 32 33  1  0  0  0  0
 32 55  1  0  0  0  0
 33 34  1  0  0  0  0
 33 56  1  0  0  0  0
 34 36  1  6  0  0  0
 34 57  1  0  0  0  0
 36 58  1  0  0  0  0
 36 59  1  0  0  0  0
 37 64  1  0  0  0  0
 37 65  1  0  0  0  0
 37 66  1  0  0  0  0
 38 68  1  0  0  0  0
 38 69  1  0  0  0  0
 38 70  1  0  0  0  0
 39 71  1  0  0  0  0
 39 72  1  0  0  0  0
 39 73  1  0  0  0  0
M  END
> <PUBCHEM_COMPOUND_CID>
10256987

> <PUBCHEM_COMPOUND_CANONICALIZED>
1

> <PUBCHEM_CACTVS_COMPLEXITY>
774

> <PUBCHEM_CACTVS_HBOND_ACCEPTOR>
12

> <PUBCHEM_CACTVS_HBOND_DONOR>
5

> <PUBCHEM_CACTVS_ROTATABLE_BOND>
8

> <PUBCHEM_CACTVS_SUBSKEYS>
AAADcfB4PAAAAAAAAAAAAAAAAAAAASJAAAA0YIAAAAASAAABQAAAGgAACAAADRSwmAMyDoAABgCAAiBCAAACCAAgIAAIiAAGiIgdNyKGMRqieCOlwBUPuAfA4PwOoAABCAAAQABAAAIQAACAAAAAAAAAAA==

> <PUBCHEM_IUPAC_OPENEYE_NAME>
(2S,3S,4R,5R,6S)-2-[4-[(3S,3aR,6S,6aR)-6-(4-hydroxy-3,5-dimethoxy-phenyl)-1,3,3a,4,6,6a-hexahydrofuro[3,4-c]furan-3-yl]-2-methoxy-phenoxy]-6-(hydroxymethyl)tetrahydropyran-3,4,5-triol

> <PUBCHEM_IUPAC_CAS_NAME>
(2S,3S,4R,5R,6S)-2-[4-[(3S,3aR,6S,6aR)-6-(4-hydroxy-3,5-dimethoxyphenyl)-1,3,3a,4,6,6a-hexahydrofuro[3,4-c]furan-3-yl]-2-methoxyphenoxy]-6-(hydroxymethyl)oxane-3,4,5-triol

> <PUBCHEM_IUPAC_NAME_MARKUP>
(2<I>S</I>,3<I>S</I>,4<I>R</I>,5<I>R</I>,6<I>S</I>)-2-[4-[(3<I>S</I>,3<I>a</I><I>R</I>,6<I>S</I>,6<I>a</I><I>R</I>)-6-(4-hydroxy-3,5-dimethoxyphenyl)-1,3,3<I>a</I>,4,6,6<I>a</I>-hexahydrofuro[3,4-c]furan-3-yl]-2-methoxyphenoxy]-6-(hydroxymethyl)oxane-3,4,5-triol

> <PUBCHEM_IUPAC_NAME>
(2S,3S,4R,5R,6S)-2-[4-[(3S,3aR,6S,6aR)-6-(4-hydroxy-3,5-dimethoxyphenyl)-1,3,3a,4,6,6a-hexahydrofuro[3,4-c]furan-3-yl]-2-methoxyphenoxy]-6-(hydroxymethyl)oxane-3,4,5-triol

> <PUBCHEM_IUPAC_SYSTEMATIC_NAME>
(2S,3S,4R,5R,6S)-2-[4-[(3S,3aR,6S,6aR)-6-(3,5-dimethoxy-4-oxidanyl-phenyl)-1,3,3a,4,6,6a-hexahydrofuro[3,4-c]furan-3-yl]-2-methoxy-phenoxy]-6-(hydroxymethyl)oxane-3,4,5-triol

> <PUBCHEM_IUPAC_TRADITIONAL_NAME>
(2S,3S,4R,5R,6S)-2-[4-[(3S,3aR,6S,6aR)-6-(4-hydroxy-3,5-dimethoxy-phenyl)-1,3,3a,4,6,6a-hexahydrofuro[3,4-c]furan-3-yl]-2-methoxy-phenoxy]-6-methylol-tetrahydropyran-3,4,5-triol

> <PUBCHEM_IUPAC_INCHI>
InChI=1S/C27H34O12/c1-33-17-6-12(4-5-16(17)38-27-24(32)23(31)22(30)20(9-28)39-27)25-14-10-37-26(15(14)11-36-25)13-7-18(34-2)21(29)19(8-13)35-3/h4-8,14-15,20,22-32H,9-11H2,1-3H3/t14-,15-,20-,22-,23+,24-,25+,26+,27+/m0/s1

> <PUBCHEM_IUPAC_INCHIKEY>
BRLYXYFYCNCKRT-BEGWOBETSA-N

> <PUBCHEM_XLOGP3_AA>
0.4

> <PUBCHEM_EXACT_MASS>
550.20502652

> <PUBCHEM_MOLECULAR_FORMULA>
C27H34O12

> <PUBCHEM_MOLECULAR_WEIGHT>
550.6

> <PUBCHEM_OPENEYE_CAN_SMILES>
COC1=CC(=CC(=C1O)OC)C2C3COC(C3CO2)C4=CC(=C(C=C4)OC5C(C(C(C(O5)CO)O)O)O)OC

> <PUBCHEM_OPENEYE_ISO_SMILES>
COC1=CC(=CC(=C1O)OC)[C@@H]2[C@H]3CO[C@@H]([C@H]3CO2)C4=CC(=C(C=C4)O[C@H]5[C@H]([C@@H]([C@H]([C@@H](O5)CO)O)O)O)OC

> <PUBCHEM_CACTVS_TPSA>
166

> <PUBCHEM_MONOISOTOPIC_WEIGHT>
550.20502652

> <PUBCHEM_TOTAL_CHARGE>
0

> <PUBCHEM_HEAVY_ATOM_COUNT>
39

> <PUBCHEM_ATOM_DEF_STEREO_COUNT>
9

> <PUBCHEM_ATOM_UDEF_STEREO_COUNT>
0

> <PUBCHEM_BOND_DEF_STEREO_COUNT>
0

> <PUBCHEM_BOND_UDEF_STEREO_COUNT>
0

> <PUBCHEM_ISOTOPIC_ATOM_COUNT>
0

> <PUBCHEM_COMPONENT_COUNT>
1

> <PUBCHEM_CACTVS_TAUTO_COUNT>
-1

> <PUBCHEM_COORDINATE_TYPE>
1
5
255

> <PUBCHEM_BONDANNOTATIONS>
33  10  5
13  40  5
14  41  5
15  19  5
16  20  5
19  21  8
19  22  8
20  23  8
20  24  8
21  25  8
22  26  8
23  29  8
24  28  8
25  27  8
26  27  8
28  35  8
29  35  8
30  3  5
34  36  6
31  8  5
32  9  6

$$$$
