 
  -OEChem-10192104352D

 38 37  0     0  0  0  0  0  0999 V2000
    2.5369    1.8100    0.0000 O   0  0  0  0  0  0  0  0  0  0  0  0
    9.4651    1.8100    0.0000 O   0  0  0  0  0  0  0  0  0  0  0  0
    3.4030    3.3100    0.0000 O   0  0  0  0  0  0  0  0  0  0  0  0
    8.5991    3.3100    0.0000 O   0  0  0  0  0  0  0  0  0  0  0  0
    3.4030   -2.6900    0.0000 O   0  0  0  0  0  0  0  0  0  0  0  0
    5.1350   -2.6900    0.0000 O   0  0  0  0  0  0  0  0  0  0  0  0
    6.0010    1.8100    0.0000 C   0  0  0  0  0  0  0  0  0  0  0  0
    6.0010    0.8100    0.0000 C   0  0  0  0  0  0  0  0  0  0  0  0
    5.1350    2.3100    0.0000 C   0  0  0  0  0  0  0  0  0  0  0  0
    6.8671    2.3100    0.0000 C   0  0  0  0  0  0  0  0  0  0  0  0
    5.1350    0.3100    0.0000 C   0  0  0  0  0  0  0  0  0  0  0  0
    5.1350   -0.6900    0.0000 C   0  0  0  0  0  0  0  0  0  0  0  0
    4.2690    1.8100    0.0000 C   0  0  0  0  0  0  0  0  0  0  0  0
    7.7331    1.8100    0.0000 C   0  0  0  0  0  0  0  0  0  0  0  0
    4.2690   -1.1900    0.0000 C   0  0  0  0  0  0  0  0  0  0  0  0
    3.4030    2.3100    0.0000 C   0  0  0  0  0  0  0  0  0  0  0  0
    8.5991    2.3100    0.0000 C   0  0  0  0  0  0  0  0  0  0  0  0
    4.2690   -2.1900    0.0000 C   0  0  0  0  0  0  0  0  0  0  0  0
    6.5380    1.5000    0.0000 H   0  0  0  0  0  0  0  0  0  0  0  0
    6.2131    0.2274    0.0000 H   0  0  0  0  0  0  0  0  0  0  0  0
    6.6116    0.9177    0.0000 H   0  0  0  0  0  0  0  0  0  0  0  0
    5.5335    2.7849    0.0000 H   0  0  0  0  0  0  0  0  0  0  0  0
    4.7365    2.7849    0.0000 H   0  0  0  0  0  0  0  0  0  0  0  0
    7.2656    2.7849    0.0000 H   0  0  0  0  0  0  0  0  0  0  0  0
    6.4685    2.7849    0.0000 H   0  0  0  0  0  0  0  0  0  0  0  0
    4.9230    0.8926    0.0000 H   0  0  0  0  0  0  0  0  0  0  0  0
    4.5244    0.2023    0.0000 H   0  0  0  0  0  0  0  0  0  0  0  0
    5.3471   -1.2726    0.0000 H   0  0  0  0  0  0  0  0  0  0  0  0
    5.7456   -0.5823    0.0000 H   0  0  0  0  0  0  0  0  0  0  0  0
    3.8705    1.3350    0.0000 H   0  0  0  0  0  0  0  0  0  0  0  0
    4.6675    1.3350    0.0000 H   0  0  0  0  0  0  0  0  0  0  0  0
    7.3346    1.3350    0.0000 H   0  0  0  0  0  0  0  0  0  0  0  0
    8.1316    1.3350    0.0000 H   0  0  0  0  0  0  0  0  0  0  0  0
    4.0569   -0.6074    0.0000 H   0  0  0  0  0  0  0  0  0  0  0  0
    3.6584   -1.2977    0.0000 H   0  0  0  0  0  0  0  0  0  0  0  0
    2.0000    2.1200    0.0000 H   0  0  0  0  0  0  0  0  0  0  0  0
   10.0021    2.1200    0.0000 H   0  0  0  0  0  0  0  0  0  0  0  0
    3.4030   -3.3100    0.0000 H   0  0  0  0  0  0  0  0  0  0  0  0
  1 16  1  0  0  0  0
  1 36  1  0  0  0  0
  2 17  1  0  0  0  0
  2 37  1  0  0  0  0
  3 16  2  0  0  0  0
  4 17  2  0  0  0  0
  5 18  1  0  0  0  0
  5 38  1  0  0  0  0
  6 18  2  0  0  0  0
  7  8  1  0  0  0  0
  7  9  1  0  0  0  0
  7 10  1  0  0  0  0
  7 19  1  0  0  0  0
  8 11  1  0  0  0  0
  8 20  1  0  0  0  0
  8 21  1  0  0  0  0
  9 13  1  0  0  0  0
  9 22  1  0  0  0  0
  9 23  1  0  0  0  0
 10 14  1  0  0  0  0
 10 24  1  0  0  0  0
 10 25  1  0  0  0  0
 11 12  1  0  0  0  0
 11 26  1  0  0  0  0
 11 27  1  0  0  0  0
 12 15  1  0  0  0  0
 12 28  1  0  0  0  0
 12 29  1  0  0  0  0
 13 16  1  0  0  0  0
 13 30  1  0  0  0  0
 13 31  1  0  0  0  0
 14 17  1  0  0  0  0
 14 32  1  0  0  0  0
 14 33  1  0  0  0  0
 15 18  1  0  0  0  0
 15 34  1  0  0  0  0
 15 35  1  0  0  0  0
M  END
> <PUBCHEM_COMPOUND_CID>
20313756

> <PUBCHEM_COMPOUND_CANONICALIZED>
1

> <PUBCHEM_CACTVS_COMPLEXITY>
268

> <PUBCHEM_CACTVS_HBOND_ACCEPTOR>
6

> <PUBCHEM_CACTVS_HBOND_DONOR>
3

> <PUBCHEM_CACTVS_ROTATABLE_BOND>
11

> <PUBCHEM_CACTVS_SUBSKEYS>
AAADceBwOAAAAAAAAAAAAAAAAAAAAAAAAAAAAAAAAAAAAAAAAAAAGgAACAAADQCAgAAACAAAAgAIAACQCAAAAAAAAAAAAAEAAAAAABIAAAAAQAAEAAAAAAGIyOCOAAAAAAAAAAAAAAAAAAAAAAAAAAAAAA==

> <PUBCHEM_IUPAC_OPENEYE_NAME>
4-(2-carboxyethyl)nonanedioic acid

> <PUBCHEM_IUPAC_CAS_NAME>
4-(2-carboxyethyl)nonanedioic acid

> <PUBCHEM_IUPAC_NAME_MARKUP>
4-(2-carboxyethyl)nonanedioic acid

> <PUBCHEM_IUPAC_NAME>
4-(2-carboxyethyl)nonanedioic acid

> <PUBCHEM_IUPAC_SYSTEMATIC_NAME>
4-(3-hydroxy-3-oxopropyl)nonanedioic acid

> <PUBCHEM_IUPAC_TRADITIONAL_NAME>
4-(2-carboxyethyl)azelaic acid

> <PUBCHEM_IUPAC_INCHI>
InChI=1S/C12H20O6/c13-10(14)4-2-1-3-9(5-7-11(15)16)6-8-12(17)18/h9H,1-8H2,(H,13,14)(H,15,16)(H,17,18)

> <PUBCHEM_IUPAC_INCHIKEY>
UBDACELMWYJAML-UHFFFAOYSA-N

> <PUBCHEM_XLOGP3_AA>
1.1

> <PUBCHEM_EXACT_MASS>
260.12598835

> <PUBCHEM_MOLECULAR_FORMULA>
C12H20O6

> <PUBCHEM_MOLECULAR_WEIGHT>
260.28

> <PUBCHEM_OPENEYE_CAN_SMILES>
C(CCC(=O)O)CC(CCC(=O)O)CCC(=O)O

> <PUBCHEM_OPENEYE_ISO_SMILES>
C(CCC(=O)O)CC(CCC(=O)O)CCC(=O)O

> <PUBCHEM_CACTVS_TPSA>
112

> <PUBCHEM_MONOISOTOPIC_WEIGHT>
260.12598835

> <PUBCHEM_TOTAL_CHARGE>
0

> <PUBCHEM_HEAVY_ATOM_COUNT>
18

> <PUBCHEM_ATOM_DEF_STEREO_COUNT>
0

> <PUBCHEM_ATOM_UDEF_STEREO_COUNT>
0

> <PUBCHEM_BOND_DEF_STEREO_COUNT>
0

> <PUBCHEM_BOND_UDEF_STEREO_COUNT>
0

> <PUBCHEM_ISOTOPIC_ATOM_COUNT>
0

> <PUBCHEM_COMPONENT_COUNT>
1

> <PUBCHEM_CACTVS_TAUTO_COUNT>
-1

> <PUBCHEM_COORDINATE_TYPE>
1
5
255

$$$$
