 
  -OEChem-10192103282D

 37 39  0     1  0  0  0  0  0999 V2000
    5.5301   -2.0829    0.0000 O   0  0  0  0  0  0  0  0  0  0  0  0
    5.5301    0.9171    0.0000 O   0  0  0  0  0  0  0  0  0  0  0  0
    8.1282   -1.5829    0.0000 O   0  0  0  0  0  0  0  0  0  0  0  0
    2.0000   -0.0588    0.0000 O   0  0  0  0  0  0  0  0  0  0  0  0
    2.0000   -2.1071    0.0000 O   0  0  0  0  0  0  0  0  0  0  0  0
    8.1282    2.4171    0.0000 O   0  0  0  0  0  0  0  0  0  0  0  0
    9.8602    1.4171    0.0000 O   0  0  0  0  0  0  0  0  0  0  0  0
    6.3961   -0.5829    0.0000 C   0  0  3  0  0  0  0  0  0  0  0  0
    6.3961   -1.5829    0.0000 C   0  0  0  0  0  0  0  0  0  0  0  0
    7.2622   -0.0829    0.0000 C   0  0  0  0  0  0  0  0  0  0  0  0
    5.5301   -0.0829    0.0000 C   0  0  0  0  0  0  0  0  0  0  0  0
    4.6641   -0.5829    0.0000 C   0  0  0  0  0  0  0  0  0  0  0  0
    4.6641   -1.5829    0.0000 C   0  0  0  0  0  0  0  0  0  0  0  0
    8.1282   -0.5829    0.0000 C   0  0  0  0  0  0  0  0  0  0  0  0
    7.2622    0.9171    0.0000 C   0  0  0  0  0  0  0  0  0  0  0  0
    3.7702   -0.0483    0.0000 C   0  0  0  0  0  0  0  0  0  0  0  0
    3.7702   -2.1176    0.0000 C   0  0  0  0  0  0  0  0  0  0  0  0
    2.8641   -0.5621    0.0000 C   0  0  0  0  0  0  0  0  0  0  0  0
    2.8641   -1.6037    0.0000 C   0  0  0  0  0  0  0  0  0  0  0  0
    8.1282    1.4171    0.0000 C   0  0  0  0  0  0  0  0  0  0  0  0
    8.9942   -0.0829    0.0000 C   0  0  0  0  0  0  0  0  0  0  0  0
    8.9942    0.9171    0.0000 C   0  0  0  0  0  0  0  0  0  0  0  0
    2.0038    0.9412    0.0000 C   0  0  0  0  0  0  0  0  0  0  0  0
    6.9331   -0.8929    0.0000 H   0  0  0  0  0  0  0  0  0  0  0  0
    6.6082   -2.1655    0.0000 H   0  0  0  0  0  0  0  0  0  0  0  0
    7.0067   -1.4753    0.0000 H   0  0  0  0  0  0  0  0  0  0  0  0
    6.7252    1.2271    0.0000 H   0  0  0  0  0  0  0  0  0  0  0  0
    3.7773    0.5717    0.0000 H   0  0  0  0  0  0  0  0  0  0  0  0
    3.7773   -2.7376    0.0000 H   0  0  0  0  0  0  0  0  0  0  0  0
    9.5312   -0.3929    0.0000 H   0  0  0  0  0  0  0  0  0  0  0  0
    8.6651   -1.8929    0.0000 H   0  0  0  0  0  0  0  0  0  0  0  0
    2.0024   -2.7271    0.0000 H   0  0  0  0  0  0  0  0  0  0  0  0
    8.6651    2.7271    0.0000 H   0  0  0  0  0  0  0  0  0  0  0  0
   10.3972    1.1071    0.0000 H   0  0  0  0  0  0  0  0  0  0  0  0
    2.6238    0.9388    0.0000 H   0  0  0  0  0  0  0  0  0  0  0  0
    2.0062    1.5612    0.0000 H   0  0  0  0  0  0  0  0  0  0  0  0
    1.3839    0.9436    0.0000 H   0  0  0  0  0  0  0  0  0  0  0  0
  1  9  1  0  0  0  0
  1 13  1  0  0  0  0
  2 11  2  0  0  0  0
  3 14  1  0  0  0  0
  3 31  1  0  0  0  0
  4 18  1  0  0  0  0
  4 23  1  0  0  0  0
  5 19  1  0  0  0  0
  5 32  1  0  0  0  0
  6 20  1  0  0  0  0
  6 33  1  0  0  0  0
  7 22  1  0  0  0  0
  7 34  1  0  0  0  0
  8  9  1  0  0  0  0
  8 10  1  0  0  0  0
  8 11  1  0  0  0  0
  8 24  1  0  0  0  0
  9 25  1  0  0  0  0
  9 26  1  0  0  0  0
 10 14  1  0  0  0  0
 10 15  2  0  0  0  0
 11 12  1  0  0  0  0
 12 13  1  0  0  0  0
 12 16  2  0  0  0  0
 13 17  2  0  0  0  0
 14 21  2  0  0  0  0
 15 20  1  0  0  0  0
 15 27  1  0  0  0  0
 16 18  1  0  0  0  0
 16 28  1  0  0  0  0
 17 19  1  0  0  0  0
 17 29  1  0  0  0  0
 18 19  2  0  0  0  0
 20 22  2  0  0  0  0
 21 22  1  0  0  0  0
 21 30  1  0  0  0  0
 23 35  1  0  0  0  0
 23 36  1  0  0  0  0
 23 37  1  0  0  0  0
M  END
> <PUBCHEM_COMPOUND_CID>
131831559

> <PUBCHEM_COMPOUND_CANONICALIZED>
1

> <PUBCHEM_CACTVS_COMPLEXITY>
442

> <PUBCHEM_CACTVS_HBOND_ACCEPTOR>
7

> <PUBCHEM_CACTVS_HBOND_DONOR>
4

> <PUBCHEM_CACTVS_ROTATABLE_BOND>
2

> <PUBCHEM_CACTVS_SUBSKEYS>
AAADccB4OAAAAAAAAAAAAAAAAAAAAAAAAAA0YIAAAAAAAACRQAAAGgAACAAADQSgmAIyBoAABgCIAqBSAAACCAAkIAAAiAEGiMgNJzaGNRqCeWOl4BULuYfK7PzOoQABCAAIQABCAAIQABCAAAAAAAAAAA==

> <PUBCHEM_IUPAC_OPENEYE_NAME>
7-hydroxy-6-methoxy-3-(2,4,5-trihydroxyphenyl)chroman-4-one

> <PUBCHEM_IUPAC_CAS_NAME>
7-hydroxy-6-methoxy-3-(2,4,5-trihydroxyphenyl)-3,4-dihydro-2H-1-benzopyran-4-one

> <PUBCHEM_IUPAC_NAME_MARKUP>
7-hydroxy-6-methoxy-3-(2,4,5-trihydroxyphenyl)-2,3-dihydrochromen-4-one

> <PUBCHEM_IUPAC_NAME>
7-hydroxy-6-methoxy-3-(2,4,5-trihydroxyphenyl)-2,3-dihydrochromen-4-one

> <PUBCHEM_IUPAC_SYSTEMATIC_NAME>
6-methoxy-7-oxidanyl-3-[2,4,5-tris(oxidanyl)phenyl]-2,3-dihydrochromen-4-one

> <PUBCHEM_IUPAC_TRADITIONAL_NAME>
7-hydroxy-6-methoxy-3-(2,4,5-trihydroxyphenyl)chroman-4-one

> <PUBCHEM_IUPAC_INCHI>
InChI=1S/C16H14O7/c1-22-15-3-8-14(5-13(15)20)23-6-9(16(8)21)7-2-11(18)12(19)4-10(7)17/h2-5,9,17-20H,6H2,1H3

> <PUBCHEM_IUPAC_INCHIKEY>
FQUSEHGRINSYNA-UHFFFAOYSA-N

> <PUBCHEM_XLOGP3_AA>
1.6

> <PUBCHEM_EXACT_MASS>
318.07395278

> <PUBCHEM_MOLECULAR_FORMULA>
C16H14O7

> <PUBCHEM_MOLECULAR_WEIGHT>
318.28

> <PUBCHEM_OPENEYE_CAN_SMILES>
COC1=C(C=C2C(=C1)C(=O)C(CO2)C3=CC(=C(C=C3O)O)O)O

> <PUBCHEM_OPENEYE_ISO_SMILES>
COC1=C(C=C2C(=C1)C(=O)C(CO2)C3=CC(=C(C=C3O)O)O)O

> <PUBCHEM_CACTVS_TPSA>
116

> <PUBCHEM_MONOISOTOPIC_WEIGHT>
318.07395278

> <PUBCHEM_TOTAL_CHARGE>
0

> <PUBCHEM_HEAVY_ATOM_COUNT>
23

> <PUBCHEM_ATOM_DEF_STEREO_COUNT>
0

> <PUBCHEM_ATOM_UDEF_STEREO_COUNT>
1

> <PUBCHEM_BOND_DEF_STEREO_COUNT>
0

> <PUBCHEM_BOND_UDEF_STEREO_COUNT>
0

> <PUBCHEM_ISOTOPIC_ATOM_COUNT>
0

> <PUBCHEM_COMPONENT_COUNT>
1

> <PUBCHEM_CACTVS_TAUTO_COUNT>
-1

> <PUBCHEM_COORDINATE_TYPE>
1
5
255

> <PUBCHEM_BONDANNOTATIONS>
10  14  8
10  15  8
12  13  8
12  16  8
13  17  8
14  21  8
15  20  8
16  18  8
17  19  8
18  19  8
20  22  8
21  22  8
8  10  3

$$$$
