 
  -OEChem-10192103372D

 75 77  0     1  0  0  0  0  0999 V2000
    9.8184    0.2989    0.0000 O   0  0  0  0  0  0  0  0  0  0  0  0
    6.3301    1.1900    0.0000 O   0  0  0  0  0  0  0  0  0  0  0  0
    7.1962   -0.3100    0.0000 O   0  0  0  0  0  0  0  0  0  0  0  0
    5.4641   -0.3100    0.0000 O   0  0  0  0  0  0  0  0  0  0  0  0
    7.1962   -2.3100    0.0000 O   0  0  0  0  0  0  0  0  0  0  0  0
    5.4641   -3.3100    0.0000 O   0  0  0  0  0  0  0  0  0  0  0  0
    3.7320   -2.3100    0.0000 O   0  0  0  0  0  0  0  0  0  0  0  0
    6.3301    4.1900    0.0000 O   0  0  0  0  0  0  0  0  0  0  0  0
    8.0622    4.1900    0.0000 O   0  0  0  0  0  0  0  0  0  0  0  0
   10.8341    1.7019    0.0000 O   0  0  0  0  0  0  0  0  0  0  0  0
    3.7320    0.6900    0.0000 O   0  0  0  0  0  0  0  0  0  0  0  0
    6.3301   -3.8100    0.0000 O   0  0  0  0  0  0  0  0  0  0  0  0
    3.7320   -3.3100    0.0000 O   0  0  0  0  0  0  0  0  0  0  0  0
    2.8660   -0.8100    0.0000 O   0  0  0  0  0  0  0  0  0  0  0  0
    2.0000    0.6900    0.0000 O   0  0  0  0  0  0  0  0  0  0  0  0
    8.0622    1.1900    0.0000 C   0  0  2  0  0  0  0  0  0  0  0  0
    9.0084    0.8853    0.0000 C   0  0  2  0  0  0  0  0  0  0  0  0
    8.0622    2.1900    0.0000 C   0  0  2  0  0  0  0  0  0  0  0  0
    9.5920    1.6900    0.0000 C   0  0  0  0  0  0  0  0  0  0  0  0
    9.0084    2.4947    0.0000 C   0  0  0  0  0  0  0  0  0  0  0  0
    7.1962    0.6900    0.0000 C   0  0  1  0  0  0  0  0  0  0  0  0
    7.1962    2.6900    0.0000 C   0  0  0  0  0  0  0  0  0  0  0  0
    8.7010   -0.0663    0.0000 C   0  0  0  0  0  0  0  0  0  0  0  0
    6.3301    2.1900    0.0000 C   0  0  0  0  0  0  0  0  0  0  0  0
    6.3301   -0.8100    0.0000 C   0  0  2  0  0  0  0  0  0  0  0  0
    6.3301   -1.8100    0.0000 C   0  0  1  0  0  0  0  0  0  0  0  0
    5.4641   -2.3100    0.0000 C   0  0  2  0  0  0  0  0  0  0  0  0
    7.1962    3.6900    0.0000 C   0  0  0  0  0  0  0  0  0  0  0  0
    4.5981   -1.8100    0.0000 C   0  0  1  0  0  0  0  0  0  0  0  0
    4.5981   -0.8100    0.0000 C   0  0  1  0  0  0  0  0  0  0  0  0
   10.7313    0.7072    0.0000 C   0  0  0  0  0  0  0  0  0  0  0  0
    3.7320   -0.3100    0.0000 C   0  0  0  0  0  0  0  0  0  0  0  0
   11.5413    0.1208    0.0000 C   0  0  0  0  0  0  0  0  0  0  0  0
    7.1962   -3.3100    0.0000 C   0  0  0  0  0  0  0  0  0  0  0  0
    4.5981   -3.8100    0.0000 C   0  0  0  0  0  0  0  0  0  0  0  0
    2.8660   -1.8100    0.0000 C   0  0  0  0  0  0  0  0  0  0  0  0
    8.0622   -3.8100    0.0000 C   0  0  0  0  0  0  0  0  0  0  0  0
    4.5981   -4.8100    0.0000 C   0  0  0  0  0  0  0  0  0  0  0  0
    2.8660    1.1900    0.0000 C   0  0  0  0  0  0  0  0  0  0  0  0
    2.0000   -2.3100    0.0000 C   0  0  0  0  0  0  0  0  0  0  0  0
    2.8660    2.1900    0.0000 C   0  0  0  0  0  0  0  0  0  0  0  0
    8.1521    0.3448    0.0000 H   0  0  0  0  0  0  0  0  0  0  0  0
    8.1521    3.0352    0.0000 H   0  0  0  0  0  0  0  0  0  0  0  0
   10.0529    1.2753    0.0000 H   0  0  0  0  0  0  0  0  0  0  0  0
   10.0529    2.1047    0.0000 H   0  0  0  0  0  0  0  0  0  0  0  0
    9.5458    2.8040    0.0000 H   0  0  0  0  0  0  0  0  0  0  0  0
    8.7574    3.0616    0.0000 H   0  0  0  0  0  0  0  0  0  0  0  0
    7.7331    0.3800    0.0000 H   0  0  0  0  0  0  0  0  0  0  0  0
    8.1110    0.1242    0.0000 H   0  0  0  0  0  0  0  0  0  0  0  0
    8.5105   -0.6563    0.0000 H   0  0  0  0  0  0  0  0  0  0  0  0
    9.2910   -0.2569    0.0000 H   0  0  0  0  0  0  0  0  0  0  0  0
    5.7932    2.5000    0.0000 H   0  0  0  0  0  0  0  0  0  0  0  0
    6.3301   -0.1900    0.0000 H   0  0  0  0  0  0  0  0  0  0  0  0
    6.3301   -2.4300    0.0000 H   0  0  0  0  0  0  0  0  0  0  0  0
    4.9272   -2.6200    0.0000 H   0  0  0  0  0  0  0  0  0  0  0  0
    4.5981   -2.4300    0.0000 H   0  0  0  0  0  0  0  0  0  0  0  0
    4.5981   -0.1900    0.0000 H   0  0  0  0  0  0  0  0  0  0  0  0
    3.1215   -0.2023    0.0000 H   0  0  0  0  0  0  0  0  0  0  0  0
    3.5200   -0.8926    0.0000 H   0  0  0  0  0  0  0  0  0  0  0  0
   11.1777   -0.3814    0.0000 H   0  0  0  0  0  0  0  0  0  0  0  0
   12.0435   -0.2427    0.0000 H   0  0  0  0  0  0  0  0  0  0  0  0
   11.9049    0.6230    0.0000 H   0  0  0  0  0  0  0  0  0  0  0  0
    6.3301    4.8100    0.0000 H   0  0  0  0  0  0  0  0  0  0  0  0
    7.7522   -4.3469    0.0000 H   0  0  0  0  0  0  0  0  0  0  0  0
    8.5991   -4.1200    0.0000 H   0  0  0  0  0  0  0  0  0  0  0  0
    8.3722   -3.2731    0.0000 H   0  0  0  0  0  0  0  0  0  0  0  0
    3.9781   -4.8100    0.0000 H   0  0  0  0  0  0  0  0  0  0  0  0
    4.5981   -5.4300    0.0000 H   0  0  0  0  0  0  0  0  0  0  0  0
    5.2181   -4.8100    0.0000 H   0  0  0  0  0  0  0  0  0  0  0  0
    1.6900   -1.7731    0.0000 H   0  0  0  0  0  0  0  0  0  0  0  0
    1.4631   -2.6200    0.0000 H   0  0  0  0  0  0  0  0  0  0  0  0
    2.3100   -2.8469    0.0000 H   0  0  0  0  0  0  0  0  0  0  0  0
    3.4860    2.1900    0.0000 H   0  0  0  0  0  0  0  0  0  0  0  0
    2.8660    2.8100    0.0000 H   0  0  0  0  0  0  0  0  0  0  0  0
    2.2460    2.1900    0.0000 H   0  0  0  0  0  0  0  0  0  0  0  0
 17  1  1  6  0  0  0
  1 31  1  0  0  0  0
  2 21  1  0  0  0  0
  2 24  1  0  0  0  0
 21  3  1  6  0  0  0
 25  3  1  1  0  0  0
  4 25  1  0  0  0  0
  4 30  1  0  0  0  0
 26  5  1  6  0  0  0
  5 34  1  0  0  0  0
 27  6  1  1  0  0  0
  6 35  1  0  0  0  0
 29  7  1  6  0  0  0
  7 36  1  0  0  0  0
  8 28  1  0  0  0  0
  8 63  1  0  0  0  0
  9 28  2  0  0  0  0
 10 31  2  0  0  0  0
 11 32  1  0  0  0  0
 11 39  1  0  0  0  0
 12 34  2  0  0  0  0
 13 35  2  0  0  0  0
 14 36  2  0  0  0  0
 15 39  2  0  0  0  0
 16 17  1  0  0  0  0
 16 18  1  0  0  0  0
 16 21  1  0  0  0  0
 16 42  1  6  0  0  0
 17 19  1  0  0  0  0
 17 23  1  0  0  0  0
 18 20  1  0  0  0  0
 18 22  1  0  0  0  0
 18 43  1  6  0  0  0
 19 20  1  0  0  0  0
 19 44  1  0  0  0  0
 19 45  1  0  0  0  0
 20 46  1  0  0  0  0
 20 47  1  0  0  0  0
 21 48  1  0  0  0  0
 22 24  2  0  0  0  0
 22 28  1  0  0  0  0
 23 49  1  0  0  0  0
 23 50  1  0  0  0  0
 23 51  1  0  0  0  0
 24 52  1  0  0  0  0
 25 26  1  0  0  0  0
 25 53  1  0  0  0  0
 26 27  1  0  0  0  0
 26 54  1  0  0  0  0
 27 29  1  0  0  0  0
 27 55  1  0  0  0  0
 29 30  1  0  0  0  0
 29 56  1  0  0  0  0
 30 32  1  1  0  0  0
 30 57  1  0  0  0  0
 31 33  1  0  0  0  0
 32 58  1  0  0  0  0
 32 59  1  0  0  0  0
 33 60  1  0  0  0  0
 33 61  1  0  0  0  0
 33 62  1  0  0  0  0
 34 37  1  0  0  0  0
 35 38  1  0  0  0  0
 36 40  1  0  0  0  0
 37 64  1  0  0  0  0
 37 65  1  0  0  0  0
 37 66  1  0  0  0  0
 38 67  1  0  0  0  0
 38 68  1  0  0  0  0
 38 69  1  0  0  0  0
 39 41  1  0  0  0  0
 40 70  1  0  0  0  0
 40 71  1  0  0  0  0
 40 72  1  0  0  0  0
 41 73  1  0  0  0  0
 41 74  1  0  0  0  0
 41 75  1  0  0  0  0
M  END
> <PUBCHEM_COMPOUND_CID>
21770882

> <PUBCHEM_COMPOUND_CANONICALIZED>
1

> <PUBCHEM_CACTVS_COMPLEXITY>
1100

> <PUBCHEM_CACTVS_HBOND_ACCEPTOR>
15

> <PUBCHEM_CACTVS_HBOND_DONOR>
1

> <PUBCHEM_CACTVS_ROTATABLE_BOND>
14

> <PUBCHEM_CACTVS_SUBSKEYS>
AAADcfB4PAAAAAAAAAAAAAAAAAAAAYAAAAAkQAAAAAAAAEAAAAAAGgAACAAADVSwgAMCCAAABgCIAgDSCAAACAAgIAAAAAEAAEgRBBIAAQAiQAAFgAAGEIHI7PzOgAAAAAAAAAAAAAAAAAAAAYAADAAAAA==

> <PUBCHEM_IUPAC_OPENEYE_NAME>
(1S,4aS,7S,7aS)-7-acetoxy-7-methyl-1-[(2S,3R,4S,5R,6R)-3,4,5-triacetoxy-6-(acetoxymethyl)tetrahydropyran-2-yl]oxy-4a,5,6,7a-tetrahydro-1H-cyclopenta[c]pyran-4-carboxylic acid

> <PUBCHEM_IUPAC_CAS_NAME>
(1S,4aS,7S,7aS)-7-acetyloxy-7-methyl-1-[[(2S,3R,4S,5R,6R)-3,4,5-triacetyloxy-6-(acetyloxymethyl)-2-oxanyl]oxy]-4a,5,6,7a-tetrahydro-1H-cyclopenta[c]pyran-4-carboxylic acid

> <PUBCHEM_IUPAC_NAME_MARKUP>
(1<I>S</I>,4<I>a</I><I>S</I>,7<I>S</I>,7<I>a</I><I>S</I>)-7-acetyloxy-7-methyl-1-[(2<I>S</I>,3<I>R</I>,4<I>S</I>,5<I>R</I>,6<I>R</I>)-3,4,5-triacetyloxy-6-(acetyloxymethyl)oxan-2-yl]oxy-4<I>a</I>,5,6,7<I>a</I>-tetrahydro-1<I>H</I>-cyclopenta[c]pyran-4-carboxylic acid

> <PUBCHEM_IUPAC_NAME>
(1S,4aS,7S,7aS)-7-acetyloxy-7-methyl-1-[(2S,3R,4S,5R,6R)-3,4,5-triacetyloxy-6-(acetyloxymethyl)oxan-2-yl]oxy-4a,5,6,7a-tetrahydro-1H-cyclopenta[c]pyran-4-carboxylic acid

> <PUBCHEM_IUPAC_SYSTEMATIC_NAME>
(1S,4aS,7S,7aS)-7-acetyloxy-7-methyl-1-[(2S,3R,4S,5R,6R)-3,4,5-triacetyloxy-6-(acetyloxymethyl)oxan-2-yl]oxy-4a,5,6,7a-tetrahydro-1H-cyclopenta[c]pyran-4-carboxylic acid

> <PUBCHEM_IUPAC_TRADITIONAL_NAME>
(1S,4aS,7S,7aS)-7-acetoxy-7-methyl-1-[(2S,3R,4S,5R,6R)-3,4,5-triacetoxy-6-(acetoxymethyl)tetrahydropyran-2-yl]oxy-4a,5,6,7a-tetrahydro-1H-cyclopenta[c]pyran-4-carboxylic acid

> <PUBCHEM_IUPAC_INCHI>
InChI=1S/C26H34O15/c1-11(27)34-10-18-20(36-12(2)28)21(37-13(3)29)22(38-14(4)30)25(39-18)40-24-19-16(17(9-35-24)23(32)33)7-8-26(19,6)41-15(5)31/h9,16,18-22,24-25H,7-8,10H2,1-6H3,(H,32,33)/t16-,18-,19-,20-,21+,22-,24+,25+,26+/m1/s1

> <PUBCHEM_IUPAC_INCHIKEY>
XIBNOYDBSFHDBH-UWJSWQKQSA-N

> <PUBCHEM_XLOGP3_AA>
0.4

> <PUBCHEM_EXACT_MASS>
586.18977037

> <PUBCHEM_MOLECULAR_FORMULA>
C26H34O15

> <PUBCHEM_MOLECULAR_WEIGHT>
586.5

> <PUBCHEM_OPENEYE_CAN_SMILES>
CC(=O)OCC1C(C(C(C(O1)OC2C3C(CCC3(C)OC(=O)C)C(=CO2)C(=O)O)OC(=O)C)OC(=O)C)OC(=O)C

> <PUBCHEM_OPENEYE_ISO_SMILES>
CC(=O)OC[C@@H]1[C@H]([C@@H]([C@H]([C@@H](O1)O[C@H]2[C@H]3[C@H](CC[C@]3(C)OC(=O)C)C(=CO2)C(=O)O)OC(=O)C)OC(=O)C)OC(=O)C

> <PUBCHEM_CACTVS_TPSA>
197

> <PUBCHEM_MONOISOTOPIC_WEIGHT>
586.18977037

> <PUBCHEM_TOTAL_CHARGE>
0

> <PUBCHEM_HEAVY_ATOM_COUNT>
41

> <PUBCHEM_ATOM_DEF_STEREO_COUNT>
9

> <PUBCHEM_ATOM_UDEF_STEREO_COUNT>
0

> <PUBCHEM_BOND_DEF_STEREO_COUNT>
0

> <PUBCHEM_BOND_UDEF_STEREO_COUNT>
0

> <PUBCHEM_ISOTOPIC_ATOM_COUNT>
0

> <PUBCHEM_COMPONENT_COUNT>
1

> <PUBCHEM_CACTVS_TAUTO_COUNT>
-1

> <PUBCHEM_COORDINATE_TYPE>
1
5
255

> <PUBCHEM_BONDANNOTATIONS>
17  1  6
16  42  6
18  43  6
21  3  6
25  3  5
30  32  5
26  5  6
27  6  5
29  7  6

$$$$
