 
  -OEChem-10192103582D

 45 45  0     1  0  0  0  0  0999 V2000
    6.8671    2.8450    0.0000 O   0  0  0  0  0  0  0  0  0  0  0  0
    2.5369    1.3450    0.0000 O   0  0  0  0  0  0  0  0  0  0  0  0
    3.4030    2.8450    0.0000 O   0  0  0  0  0  0  0  0  0  0  0  0
    9.4651    1.3450    0.0000 O   0  0  0  0  0  0  0  0  0  0  0  0
    8.5991    2.8450    0.0000 O   0  0  0  0  0  0  0  0  0  0  0  0
    5.1350   -3.1550    0.0000 O   0  0  0  0  0  0  0  0  0  0  0  0
    6.8671   -3.1550    0.0000 O   0  0  0  0  0  0  0  0  0  0  0  0
    6.0010    1.3450    0.0000 N   0  0  0  0  0  0  0  0  0  0  0  0
    4.2690    1.3450    0.0000 N   0  0  0  0  0  0  0  0  0  0  0  0
    5.1350   -0.1550    0.0000 N   0  0  0  0  0  0  0  0  0  0  0  0
    7.7331    1.3450    0.0000 N   0  0  0  0  0  0  0  0  0  0  0  0
    6.8671   -0.1550    0.0000 N   0  0  0  0  0  0  0  0  0  0  0  0
    6.0010   -1.6550    0.0000 N   0  0  0  0  0  0  0  0  0  0  0  0
    5.1350    0.8450    0.0000 C   0  0  3  0  0  0  0  0  0  0  0  0
    6.8671    0.8450    0.0000 C   0  0  0  0  0  0  0  0  0  0  0  0
    6.0010    2.3450    0.0000 C   0  0  0  0  0  0  0  0  0  0  0  0
    6.0010   -0.6550    0.0000 C   0  0  0  0  0  0  0  0  0  0  0  0
    3.4030    0.8450    0.0000 C   0  0  0  0  0  0  0  0  0  0  0  0
    4.2690    2.3450    0.0000 C   0  0  0  0  0  0  0  0  0  0  0  0
    8.5991    0.8450    0.0000 C   0  0  0  0  0  0  0  0  0  0  0  0
    7.7331    2.3450    0.0000 C   0  0  0  0  0  0  0  0  0  0  0  0
    5.1350   -2.1550    0.0000 C   0  0  0  0  0  0  0  0  0  0  0  0
    6.8671   -2.1550    0.0000 C   0  0  0  0  0  0  0  0  0  0  0  0
    5.1350    1.4650    0.0000 H   0  0  0  0  0  0  0  0  0  0  0  0
    5.7890    2.9276    0.0000 H   0  0  0  0  0  0  0  0  0  0  0  0
    5.3905    2.2373    0.0000 H   0  0  0  0  0  0  0  0  0  0  0  0
    3.0044    0.3701    0.0000 H   0  0  0  0  0  0  0  0  0  0  0  0
    3.8015    0.3701    0.0000 H   0  0  0  0  0  0  0  0  0  0  0  0
    4.8796    2.2373    0.0000 H   0  0  0  0  0  0  0  0  0  0  0  0
    4.4810    2.9276    0.0000 H   0  0  0  0  0  0  0  0  0  0  0  0
    8.2006    0.3701    0.0000 H   0  0  0  0  0  0  0  0  0  0  0  0
    8.9976    0.3701    0.0000 H   0  0  0  0  0  0  0  0  0  0  0  0
    7.5210    2.9276    0.0000 H   0  0  0  0  0  0  0  0  0  0  0  0
    7.1225    2.2373    0.0000 H   0  0  0  0  0  0  0  0  0  0  0  0
    4.9230   -1.5724    0.0000 H   0  0  0  0  0  0  0  0  0  0  0  0
    4.5244   -2.2627    0.0000 H   0  0  0  0  0  0  0  0  0  0  0  0
    7.4776   -2.2627    0.0000 H   0  0  0  0  0  0  0  0  0  0  0  0
    7.0791   -1.5724    0.0000 H   0  0  0  0  0  0  0  0  0  0  0  0
    6.8671    3.4650    0.0000 H   0  0  0  0  0  0  0  0  0  0  0  0
    2.0000    1.0350    0.0000 H   0  0  0  0  0  0  0  0  0  0  0  0
    3.4030    3.4650    0.0000 H   0  0  0  0  0  0  0  0  0  0  0  0
   10.0021    1.0350    0.0000 H   0  0  0  0  0  0  0  0  0  0  0  0
    8.5991    3.4650    0.0000 H   0  0  0  0  0  0  0  0  0  0  0  0
    4.5981   -3.4650    0.0000 H   0  0  0  0  0  0  0  0  0  0  0  0
    7.4040   -3.4650    0.0000 H   0  0  0  0  0  0  0  0  0  0  0  0
  1 16  1  0  0  0  0
  1 39  1  0  0  0  0
  2 18  1  0  0  0  0
  2 40  1  0  0  0  0
  3 19  1  0  0  0  0
  3 41  1  0  0  0  0
  4 20  1  0  0  0  0
  4 42  1  0  0  0  0
  5 21  1  0  0  0  0
  5 43  1  0  0  0  0
  6 22  1  0  0  0  0
  6 44  1  0  0  0  0
  7 23  1  0  0  0  0
  7 45  1  0  0  0  0
  8 14  1  0  0  0  0
  8 15  1  0  0  0  0
  8 16  1  0  0  0  0
  9 14  1  0  0  0  0
  9 18  1  0  0  0  0
  9 19  1  0  0  0  0
 10 14  1  0  0  0  0
 10 17  2  0  0  0  0
 11 15  1  0  0  0  0
 11 20  1  0  0  0  0
 11 21  1  0  0  0  0
 12 15  2  0  0  0  0
 12 17  1  0  0  0  0
 13 17  1  0  0  0  0
 13 22  1  0  0  0  0
 13 23  1  0  0  0  0
 14 24  1  0  0  0  0
 16 25  1  0  0  0  0
 16 26  1  0  0  0  0
 18 27  1  0  0  0  0
 18 28  1  0  0  0  0
 19 29  1  0  0  0  0
 19 30  1  0  0  0  0
 20 31  1  0  0  0  0
 20 32  1  0  0  0  0
 21 33  1  0  0  0  0
 21 34  1  0  0  0  0
 22 35  1  0  0  0  0
 22 36  1  0  0  0  0
 23 37  1  0  0  0  0
 23 38  1  0  0  0  0
M  END
> <PUBCHEM_COMPOUND_CID>
123844056

> <PUBCHEM_COMPOUND_CANONICALIZED>
1

> <PUBCHEM_CACTVS_COMPLEXITY>
411

> <PUBCHEM_CACTVS_HBOND_ACCEPTOR>
9

> <PUBCHEM_CACTVS_HBOND_DONOR>
7

> <PUBCHEM_CACTVS_ROTATABLE_BOND>
10

> <PUBCHEM_CACTVS_SUBSKEYS>
AAADceBzuAAAAAAAAAAAAAAAAAAAAAAAAAAgAAAAAAAAAAAAAAAAFgAACAAAAAAAAAYBAAMAAgAgAAAAJAAAAAEAAAABAAAIAACAEAAAAAAAAAAIAAAAAAAAAAAAAAAAAAAAAAAAAAAAAAAAAAAAAAAAAA==

> <PUBCHEM_IUPAC_OPENEYE_NAME>
[2,4,6-tris[bis(hydroxymethyl)amino]-2H-1,3,5-triazin-1-yl]methanol

> <PUBCHEM_IUPAC_CAS_NAME>
[2,4,6-tris[bis(hydroxymethyl)amino]-2H-1,3,5-triazin-1-yl]methanol

> <PUBCHEM_IUPAC_NAME_MARKUP>
[2,4,6-tris[bis(hydroxymethyl)amino]-2<I>H</I>-1,3,5-triazin-1-yl]methanol

> <PUBCHEM_IUPAC_NAME>
[2,4,6-tris[bis(hydroxymethyl)amino]-2H-1,3,5-triazin-1-yl]methanol

> <PUBCHEM_IUPAC_SYSTEMATIC_NAME>
[2,4,6-tris[bis(hydroxymethyl)amino]-2H-1,3,5-triazin-1-yl]methanol

> <PUBCHEM_IUPAC_TRADITIONAL_NAME>
[2,4,6-tris(dimethylolamino)-2H-s-triazin-1-yl]methanol

> <PUBCHEM_IUPAC_INCHI>
InChI=1S/C10H22N6O7/c17-1-13(2-18)8-11-9(14(3-19)4-20)16(7-23)10(12-8)15(5-21)6-22/h9,17-23H,1-7H2

> <PUBCHEM_IUPAC_INCHIKEY>
ZUXICWRDFWGHQG-UHFFFAOYSA-N

> <PUBCHEM_XLOGP3_AA>
-4.6

> <PUBCHEM_EXACT_MASS>
338.15499706

> <PUBCHEM_MOLECULAR_FORMULA>
C10H22N6O7

> <PUBCHEM_MOLECULAR_WEIGHT>
338.32

> <PUBCHEM_OPENEYE_CAN_SMILES>
C(N1C(N=C(N=C1N(CO)CO)N(CO)CO)N(CO)CO)O

> <PUBCHEM_OPENEYE_ISO_SMILES>
C(N1C(N=C(N=C1N(CO)CO)N(CO)CO)N(CO)CO)O

> <PUBCHEM_CACTVS_TPSA>
179

> <PUBCHEM_MONOISOTOPIC_WEIGHT>
338.15499706

> <PUBCHEM_TOTAL_CHARGE>
0

> <PUBCHEM_HEAVY_ATOM_COUNT>
23

> <PUBCHEM_ATOM_DEF_STEREO_COUNT>
0

> <PUBCHEM_ATOM_UDEF_STEREO_COUNT>
1

> <PUBCHEM_BOND_DEF_STEREO_COUNT>
0

> <PUBCHEM_BOND_UDEF_STEREO_COUNT>
0

> <PUBCHEM_ISOTOPIC_ATOM_COUNT>
0

> <PUBCHEM_COMPONENT_COUNT>
1

> <PUBCHEM_CACTVS_TAUTO_COUNT>
-1

> <PUBCHEM_COORDINATE_TYPE>
1
5
255

> <PUBCHEM_BONDANNOTATIONS>
14  9  3

$$$$
