 
  -OEChem-10192103412D

 32 33  0     1  0  0  0  0  0999 V2000
    6.3981   -0.7758    0.0000 O   0  0  0  0  0  0  0  0  0  0  0  0
    2.8660   -0.7550    0.0000 O   0  0  0  0  0  0  0  0  0  0  0  0
    7.2622    0.7692    0.0000 O   0  0  0  0  0  0  0  0  0  0  0  0
    2.0000    0.7450    0.0000 O   0  0  0  0  0  0  0  0  0  0  0  0
    5.4804   -2.2896    0.0000 O   0  0  0  0  0  0  0  0  0  0  0  0
    3.7320   -2.2550    0.0000 O   0  0  0  0  0  0  0  0  0  0  0  0
    4.5981    0.2450    0.0000 C   0  0  0  0  0  0  0  0  0  0  0  0
    5.4920    0.7797    0.0000 C   0  0  3  0  0  0  0  0  0  0  0  0
    3.7320    0.7450    0.0000 C   0  0  3  0  0  0  0  0  0  0  0  0
    4.5981   -0.7550    0.0000 C   0  0  0  0  0  0  0  0  0  0  0  0
    5.4804    1.7796    0.0000 C   0  0  0  0  0  0  0  0  0  0  0  0
    3.7320    1.7450    0.0000 C   0  0  0  0  0  0  0  0  0  0  0  0
    6.3981    0.2658    0.0000 C   0  0  0  0  0  0  0  0  0  0  0  0
    2.8660    0.2450    0.0000 C   0  0  0  0  0  0  0  0  0  0  0  0
    5.4920   -1.2896    0.0000 C   0  0  0  0  0  0  0  0  0  0  0  0
    3.7320   -1.2550    0.0000 C   0  0  0  0  0  0  0  0  0  0  0  0
    6.3406    2.2896    0.0000 C   0  0  0  0  0  0  0  0  0  0  0  0
    2.8660    2.2450    0.0000 C   0  0  0  0  0  0  0  0  0  0  0  0
    4.5933    0.8650    0.0000 H   0  0  0  0  0  0  0  0  0  0  0  0
    6.0259    1.0948    0.0000 H   0  0  0  0  0  0  0  0  0  0  0  0
    3.1951    1.0550    0.0000 H   0  0  0  0  0  0  0  0  0  0  0  0
    4.5933   -1.3750    0.0000 H   0  0  0  0  0  0  0  0  0  0  0  0
    5.2617    2.3597    0.0000 H   0  0  0  0  0  0  0  0  0  0  0  0
    4.8712    1.6649    0.0000 H   0  0  0  0  0  0  0  0  0  0  0  0
    4.3426    1.6374    0.0000 H   0  0  0  0  0  0  0  0  0  0  0  0
    3.9441    2.3276    0.0000 H   0  0  0  0  0  0  0  0  0  0  0  0
    6.6568    1.7563    0.0000 H   0  0  0  0  0  0  0  0  0  0  0  0
    6.8740    2.6058    0.0000 H   0  0  0  0  0  0  0  0  0  0  0  0
    6.0244    2.8229    0.0000 H   0  0  0  0  0  0  0  0  0  0  0  0
    3.1760    2.7820    0.0000 H   0  0  0  0  0  0  0  0  0  0  0  0
    2.3291    2.5550    0.0000 H   0  0  0  0  0  0  0  0  0  0  0  0
    2.5560    1.7081    0.0000 H   0  0  0  0  0  0  0  0  0  0  0  0
  1 13  1  0  0  0  0
  1 15  1  0  0  0  0
  2 14  1  0  0  0  0
  2 16  1  0  0  0  0
  3 13  2  0  0  0  0
  4 14  2  0  0  0  0
  5 15  2  0  0  0  0
  6 16  2  0  0  0  0
  7  8  1  0  0  0  0
  7  9  1  0  0  0  0
  7 10  1  0  0  0  0
  7 19  1  0  0  0  0
  8 11  1  0  0  0  0
  8 13  1  0  0  0  0
  8 20  1  0  0  0  0
  9 12  1  0  0  0  0
  9 14  1  0  0  0  0
  9 21  1  0  0  0  0
 10 15  1  0  0  0  0
 10 16  1  0  0  0  0
 10 22  1  0  0  0  0
 11 17  1  0  0  0  0
 11 23  1  0  0  0  0
 11 24  1  0  0  0  0
 12 18  1  0  0  0  0
 12 25  1  0  0  0  0
 12 26  1  0  0  0  0
 17 27  1  0  0  0  0
 17 28  1  0  0  0  0
 17 29  1  0  0  0  0
 18 30  1  0  0  0  0
 18 31  1  0  0  0  0
 18 32  1  0  0  0  0
M  END
> <PUBCHEM_COMPOUND_CID>
126529250

> <PUBCHEM_COMPOUND_CANONICALIZED>
1

> <PUBCHEM_CACTVS_COMPLEXITY>
388

> <PUBCHEM_CACTVS_HBOND_ACCEPTOR>
6

> <PUBCHEM_CACTVS_HBOND_DONOR>
0

> <PUBCHEM_CACTVS_ROTATABLE_BOND>
2

> <PUBCHEM_CACTVS_SUBSKEYS>
AAADccBwOAAAAAAAAAAAAAAAAAAAAAAAAAAkSAAAAAAAAACQAAAAGgAAAAAADQCAgAACCAAABAAIAACQCAAAAAAAAAAAAAEAAAAAABYIAAACAAAFIAAAAAGI7ggOgAAAAAAAAAAAAAAAAAAAAAAAAAAAAA==

> <PUBCHEM_IUPAC_OPENEYE_NAME>
4,5-diethyl-4,4a,5,8a-tetrahydropyrano[3,4-c]pyran-1,3,6,8-tetrone

> <PUBCHEM_IUPAC_CAS_NAME>
4,5-diethyl-4,4a,5,8a-tetrahydropyrano[3,4-c]pyran-1,3,6,8-tetrone

> <PUBCHEM_IUPAC_NAME_MARKUP>
4,5-diethyl-4,4<I>a</I>,5,8<I>a</I>-tetrahydropyrano[3,4-c]pyran-1,3,6,8-tetrone

> <PUBCHEM_IUPAC_NAME>
4,5-diethyl-4,4a,5,8a-tetrahydropyrano[3,4-c]pyran-1,3,6,8-tetrone

> <PUBCHEM_IUPAC_SYSTEMATIC_NAME>
4,5-diethyl-4,4a,5,8a-tetrahydropyrano[3,4-c]pyran-1,3,6,8-tetrone

> <PUBCHEM_IUPAC_TRADITIONAL_NAME>
4,5-diethyl-4,4a,5,8a-tetrahydropyrano[3,4-c]pyran-1,3,6,8-diquinone

> <PUBCHEM_IUPAC_INCHI>
InChI=1S/C12H14O6/c1-3-5-7-6(4-2)10(14)18-12(16)8(7)11(15)17-9(5)13/h5-8H,3-4H2,1-2H3

> <PUBCHEM_IUPAC_INCHIKEY>
CRLCIRQXCGZKHQ-UHFFFAOYSA-N

> <PUBCHEM_XLOGP3_AA>
1.3

> <PUBCHEM_EXACT_MASS>
254.07903816

> <PUBCHEM_MOLECULAR_FORMULA>
C12H14O6

> <PUBCHEM_MOLECULAR_WEIGHT>
254.24

> <PUBCHEM_OPENEYE_CAN_SMILES>
CCC1C2C(C(=O)OC(=O)C2C(=O)OC1=O)CC

> <PUBCHEM_OPENEYE_ISO_SMILES>
CCC1C2C(C(=O)OC(=O)C2C(=O)OC1=O)CC

> <PUBCHEM_CACTVS_TPSA>
86.7

> <PUBCHEM_MONOISOTOPIC_WEIGHT>
254.07903816

> <PUBCHEM_TOTAL_CHARGE>
0

> <PUBCHEM_HEAVY_ATOM_COUNT>
18

> <PUBCHEM_ATOM_DEF_STEREO_COUNT>
0

> <PUBCHEM_ATOM_UDEF_STEREO_COUNT>
2

> <PUBCHEM_BOND_DEF_STEREO_COUNT>
0

> <PUBCHEM_BOND_UDEF_STEREO_COUNT>
0

> <PUBCHEM_ISOTOPIC_ATOM_COUNT>
0

> <PUBCHEM_COMPONENT_COUNT>
1

> <PUBCHEM_CACTVS_TAUTO_COUNT>
-1

> <PUBCHEM_COORDINATE_TYPE>
1
5
255

> <PUBCHEM_BONDANNOTATIONS>
8  11  3
9  12  3

$$$$
