 
  -OEChem-10192103412D

 75 76  0     1  0  0  0  0  0999 V2000
    7.1962   -1.5600    0.0000 O   0  0  0  0  0  0  0  0  0  0  0  0
    8.9282    0.4400    0.0000 O   0  0  0  0  0  0  0  0  0  0  0  0
    6.3301   -0.0600    0.0000 O   0  0  0  0  0  0  0  0  0  0  0  0
    8.9282   -2.5600    0.0000 O   0  0  0  0  0  0  0  0  0  0  0  0
   10.6603   -1.5600    0.0000 O   0  0  0  0  0  0  0  0  0  0  0  0
    5.4641   -2.5600    0.0000 O   0  0  0  0  0  0  0  0  0  0  0  0
    3.7320   -1.5600    0.0000 O   0  0  0  0  0  0  0  0  0  0  0  0
   10.6603    0.4400    0.0000 O   0  0  0  0  0  0  0  0  0  0  0  0
    3.7320    0.4400    0.0000 O   0  0  0  0  0  0  0  0  0  0  0  0
    7.1962    1.4400    0.0000 O   0  0  0  0  0  0  0  0  0  0  0  0
    6.3301    1.9400    0.0000 O   0  0  0  0  0  0  0  0  0  0  0  0
   10.6603   -2.5600    0.0000 O   0  0  0  0  0  0  0  0  0  0  0  0
   11.5263   -0.0600    0.0000 O   0  0  0  0  0  0  0  0  0  0  0  0
    4.5981   -4.0600    0.0000 O   0  0  0  0  0  0  0  0  0  0  0  0
    2.8660   -0.0600    0.0000 O   0  0  0  0  0  0  0  0  0  0  0  0
   12.3923    3.4400    0.0000 O   0  0  0  0  0  0  0  0  0  0  0  0
    8.0622   -1.0600    0.0000 C   0  0  3  0  0  0  0  0  0  0  0  0
    8.9282   -1.5600    0.0000 C   0  0  1  0  0  0  0  0  0  0  0  0
    8.0622   -0.0600    0.0000 C   0  0  1  0  0  0  0  0  0  0  0  0
    6.3301   -1.0600    0.0000 C   0  0  1  0  0  0  0  0  0  0  0  0
    9.7942   -1.0600    0.0000 C   0  0  2  0  0  0  0  0  0  0  0  0
    5.4641   -1.5600    0.0000 C   0  0  1  0  0  0  0  0  0  0  0  0
    4.5981   -1.0600    0.0000 C   0  0  2  0  0  0  0  0  0  0  0  0
    4.5981   -0.0600    0.0000 C   0  0  1  0  0  0  0  0  0  0  0  0
    9.7942   -0.0600    0.0000 C   0  0  1  0  0  0  0  0  0  0  0  0
    5.4641    0.4400    0.0000 C   0  0  1  0  0  0  0  0  0  0  0  0
    7.1962    0.4400    0.0000 C   0  0  0  0  0  0  0  0  0  0  0  0
    5.4641    1.4400    0.0000 C   0  0  0  0  0  0  0  0  0  0  0  0
   10.6603    1.4400    0.0000 C   0  0  0  0  0  0  0  0  0  0  0  0
    9.7942   -3.0600    0.0000 C   0  0  0  0  0  0  0  0  0  0  0  0
   11.5263   -1.0600    0.0000 C   0  0  0  0  0  0  0  0  0  0  0  0
    4.5981   -3.0600    0.0000 C   0  0  0  0  0  0  0  0  0  0  0  0
    2.8660   -1.0600    0.0000 C   0  0  0  0  0  0  0  0  0  0  0  0
   11.5263    1.9400    0.0000 C   0  0  0  0  0  0  0  0  0  0  0  0
    9.7942   -4.0600    0.0000 C   0  0  0  0  0  0  0  0  0  0  0  0
   12.3923   -1.5600    0.0000 C   0  0  0  0  0  0  0  0  0  0  0  0
    3.7320   -2.5600    0.0000 C   0  0  0  0  0  0  0  0  0  0  0  0
    2.0000   -1.5600    0.0000 C   0  0  0  0  0  0  0  0  0  0  0  0
   11.5263    2.9400    0.0000 C   0  0  0  0  0  0  0  0  0  0  0  0
    8.0622   -1.6800    0.0000 H   0  0  0  0  0  0  0  0  0  0  0  0
    8.3913   -1.8700    0.0000 H   0  0  0  0  0  0  0  0  0  0  0  0
    8.0622    0.5600    0.0000 H   0  0  0  0  0  0  0  0  0  0  0  0
    6.3301   -1.6800    0.0000 H   0  0  0  0  0  0  0  0  0  0  0  0
    9.7942   -1.6800    0.0000 H   0  0  0  0  0  0  0  0  0  0  0  0
    4.9272   -1.8700    0.0000 H   0  0  0  0  0  0  0  0  0  0  0  0
    4.0611   -0.7500    0.0000 H   0  0  0  0  0  0  0  0  0  0  0  0
    4.5981    0.5600    0.0000 H   0  0  0  0  0  0  0  0  0  0  0  0
    9.7942    0.5600    0.0000 H   0  0  0  0  0  0  0  0  0  0  0  0
    6.0010    0.7500    0.0000 H   0  0  0  0  0  0  0  0  0  0  0  0
    6.5856    0.5477    0.0000 H   0  0  0  0  0  0  0  0  0  0  0  0
    6.9841   -0.1426    0.0000 H   0  0  0  0  0  0  0  0  0  0  0  0
    5.2520    2.0226    0.0000 H   0  0  0  0  0  0  0  0  0  0  0  0
    4.8535    1.3323    0.0000 H   0  0  0  0  0  0  0  0  0  0  0  0
    3.7320    1.0600    0.0000 H   0  0  0  0  0  0  0  0  0  0  0  0
   10.4482    2.0226    0.0000 H   0  0  0  0  0  0  0  0  0  0  0  0
   10.0497    1.3323    0.0000 H   0  0  0  0  0  0  0  0  0  0  0  0
    7.7331    1.7500    0.0000 H   0  0  0  0  0  0  0  0  0  0  0  0
    6.3301    2.5600    0.0000 H   0  0  0  0  0  0  0  0  0  0  0  0
   11.7383    1.3574    0.0000 H   0  0  0  0  0  0  0  0  0  0  0  0
   12.1369    2.0477    0.0000 H   0  0  0  0  0  0  0  0  0  0  0  0
    9.1742   -4.0600    0.0000 H   0  0  0  0  0  0  0  0  0  0  0  0
    9.7942   -4.6800    0.0000 H   0  0  0  0  0  0  0  0  0  0  0  0
   10.4142   -4.0600    0.0000 H   0  0  0  0  0  0  0  0  0  0  0  0
   12.0823   -2.0969    0.0000 H   0  0  0  0  0  0  0  0  0  0  0  0
   12.9292   -1.8700    0.0000 H   0  0  0  0  0  0  0  0  0  0  0  0
   12.7023   -1.0231    0.0000 H   0  0  0  0  0  0  0  0  0  0  0  0
    4.0420   -2.0231    0.0000 H   0  0  0  0  0  0  0  0  0  0  0  0
    3.1951   -2.2500    0.0000 H   0  0  0  0  0  0  0  0  0  0  0  0
    3.4220   -3.0969    0.0000 H   0  0  0  0  0  0  0  0  0  0  0  0
    1.6900   -1.0231    0.0000 H   0  0  0  0  0  0  0  0  0  0  0  0
    1.4631   -1.8700    0.0000 H   0  0  0  0  0  0  0  0  0  0  0  0
    2.3100   -2.0969    0.0000 H   0  0  0  0  0  0  0  0  0  0  0  0
   11.3142    3.5226    0.0000 H   0  0  0  0  0  0  0  0  0  0  0  0
   10.9157    2.8323    0.0000 H   0  0  0  0  0  0  0  0  0  0  0  0
   12.3923    4.0600    0.0000 H   0  0  0  0  0  0  0  0  0  0  0  0
  1 17  1  0  0  0  0
 20  1  1  6  0  0  0
  2 19  1  0  0  0  0
  2 25  1  0  0  0  0
  3 20  1  0  0  0  0
  3 26  1  0  0  0  0
 18  4  1  1  0  0  0
  4 30  1  0  0  0  0
 21  5  1  6  0  0  0
  5 31  1  0  0  0  0
 22  6  1  6  0  0  0
  6 32  1  0  0  0  0
 23  7  1  1  0  0  0
  7 33  1  0  0  0  0
 25  8  1  1  0  0  0
  8 29  1  0  0  0  0
 24  9  1  6  0  0  0
  9 54  1  0  0  0  0
 10 27  1  0  0  0  0
 10 57  1  0  0  0  0
 11 28  1  0  0  0  0
 11 58  1  0  0  0  0
 12 30  2  0  0  0  0
 13 31  2  0  0  0  0
 14 32  2  0  0  0  0
 15 33  2  0  0  0  0
 16 39  1  0  0  0  0
 16 75  1  0  0  0  0
 17 18  1  0  0  0  0
 17 19  1  0  0  0  0
 17 40  1  0  0  0  0
 18 21  1  0  0  0  0
 18 41  1  0  0  0  0
 19 27  1  1  0  0  0
 19 42  1  0  0  0  0
 20 22  1  0  0  0  0
 20 43  1  0  0  0  0
 21 25  1  0  0  0  0
 21 44  1  0  0  0  0
 22 23  1  0  0  0  0
 22 45  1  0  0  0  0
 23 24  1  0  0  0  0
 23 46  1  0  0  0  0
 24 26  1  0  0  0  0
 24 47  1  0  0  0  0
 25 48  1  0  0  0  0
 26 28  1  1  0  0  0
 26 49  1  0  0  0  0
 27 50  1  0  0  0  0
 27 51  1  0  0  0  0
 28 52  1  0  0  0  0
 28 53  1  0  0  0  0
 29 34  1  0  0  0  0
 29 55  1  0  0  0  0
 29 56  1  0  0  0  0
 30 35  1  0  0  0  0
 31 36  1  0  0  0  0
 32 37  1  0  0  0  0
 33 38  1  0  0  0  0
 34 39  1  0  0  0  0
 34 59  1  0  0  0  0
 34 60  1  0  0  0  0
 35 61  1  0  0  0  0
 35 62  1  0  0  0  0
 35 63  1  0  0  0  0
 36 64  1  0  0  0  0
 36 65  1  0  0  0  0
 36 66  1  0  0  0  0
 37 67  1  0  0  0  0
 37 68  1  0  0  0  0
 37 69  1  0  0  0  0
 38 70  1  0  0  0  0
 38 71  1  0  0  0  0
 38 72  1  0  0  0  0
 39 73  1  0  0  0  0
 39 74  1  0  0  0  0
M  END
> <PUBCHEM_COMPOUND_CID>
118052403

> <PUBCHEM_COMPOUND_CANONICALIZED>
1

> <PUBCHEM_CACTVS_COMPLEXITY>
835

> <PUBCHEM_CACTVS_HBOND_ACCEPTOR>
16

> <PUBCHEM_CACTVS_HBOND_DONOR>
4

> <PUBCHEM_CACTVS_ROTATABLE_BOND>
16

> <PUBCHEM_CACTVS_SUBSKEYS>
AAADcfB4PgAAAAAAAAAAAAAAAAAAAAAAAAAkSAAAAAAAAAAAAAAAGgAACAAACBSwgAMCCAAABgAIAACQCAAAAAAAAAAAAAAAAAAREAIAAAAiQAAFAAAHAAHAYAwAAAAAAAAAAAAAAAAAAAAAAAAAAAAAAA==

> <PUBCHEM_IUPAC_OPENEYE_NAME>
[(2R,3R,4S,5R,6R)-3-acetoxy-2-[(2R,4S,5R,6R)-4,5-diacetoxy-2-(hydroxymethyl)-6-(3-hydroxypropoxy)tetrahydropyran-3-yl]oxy-5-hydroxy-6-(hydroxymethyl)tetrahydropyran-4-yl] acetate

> <PUBCHEM_IUPAC_CAS_NAME>
acetic acid [(2R,3R,4S,5R,6R)-3-acetyloxy-2-[[(2R,4S,5R,6R)-4,5-diacetyloxy-2-(hydroxymethyl)-6-(3-hydroxypropoxy)-3-oxanyl]oxy]-5-hydroxy-6-(hydroxymethyl)-4-oxanyl] ester

> <PUBCHEM_IUPAC_NAME_MARKUP>
[(2<I>R</I>,3<I>R</I>,4<I>S</I>,5<I>R</I>,6<I>R</I>)-3-acetyloxy-2-[(2<I>R</I>,4<I>S</I>,5<I>R</I>,6<I>R</I>)-4,5-diacetyloxy-2-(hydroxymethyl)-6-(3-hydroxypropoxy)oxan-3-yl]oxy-5-hydroxy-6-(hydroxymethyl)oxan-4-yl] acetate

> <PUBCHEM_IUPAC_NAME>
[(2R,3R,4S,5R,6R)-3-acetyloxy-2-[(2R,4S,5R,6R)-4,5-diacetyloxy-2-(hydroxymethyl)-6-(3-hydroxypropoxy)oxan-3-yl]oxy-5-hydroxy-6-(hydroxymethyl)oxan-4-yl] acetate

> <PUBCHEM_IUPAC_SYSTEMATIC_NAME>
[(2R,3R,4S,5R,6R)-3-acetyloxy-2-[(2R,4S,5R,6R)-4,5-diacetyloxy-2-(hydroxymethyl)-6-(3-oxidanylpropoxy)oxan-3-yl]oxy-6-(hydroxymethyl)-5-oxidanyl-oxan-4-yl] ethanoate

> <PUBCHEM_IUPAC_TRADITIONAL_NAME>
acetic acid [(2R,3R,4S,5R,6R)-3-acetoxy-2-[(2R,4S,5R,6R)-4,5-diacetoxy-6-(3-hydroxypropoxy)-2-methylol-tetrahydropyran-3-yl]oxy-5-hydroxy-6-methylol-tetrahydropyran-4-yl] ester

> <PUBCHEM_IUPAC_INCHI>
InChI=1S/C23H36O16/c1-10(27)33-18-16(31)14(8-25)37-23(20(18)35-12(3)29)39-17-15(9-26)38-22(32-7-5-6-24)21(36-13(4)30)19(17)34-11(2)28/h14-26,31H,5-9H2,1-4H3/t14-,15-,16-,17?,18+,19+,20-,21-,22-,23-/m1/s1

> <PUBCHEM_IUPAC_INCHIKEY>
XFAIBTIVXQEDBZ-GGKMOCOASA-N

> <PUBCHEM_XLOGP3_AA>
-2.2

> <PUBCHEM_EXACT_MASS>
568.20033506

> <PUBCHEM_MOLECULAR_FORMULA>
C23H36O16

> <PUBCHEM_MOLECULAR_WEIGHT>
568.5

> <PUBCHEM_OPENEYE_CAN_SMILES>
CC(=O)OC1C(C(OC(C1OC(=O)C)OC2C(OC(C(C2OC(=O)C)OC(=O)C)OCCCO)CO)CO)O

> <PUBCHEM_OPENEYE_ISO_SMILES>
CC(=O)O[C@H]1[C@@H]([C@H](O[C@@H]([C@@H]1OC(=O)C)OC2[C@H](O[C@H]([C@@H]([C@H]2OC(=O)C)OC(=O)C)OCCCO)CO)CO)O

> <PUBCHEM_CACTVS_TPSA>
223

> <PUBCHEM_MONOISOTOPIC_WEIGHT>
568.20033506

> <PUBCHEM_TOTAL_CHARGE>
0

> <PUBCHEM_HEAVY_ATOM_COUNT>
39

> <PUBCHEM_ATOM_DEF_STEREO_COUNT>
9

> <PUBCHEM_ATOM_UDEF_STEREO_COUNT>
1

> <PUBCHEM_BOND_DEF_STEREO_COUNT>
0

> <PUBCHEM_BOND_UDEF_STEREO_COUNT>
0

> <PUBCHEM_ISOTOPIC_ATOM_COUNT>
0

> <PUBCHEM_COMPONENT_COUNT>
1

> <PUBCHEM_CACTVS_TAUTO_COUNT>
-1

> <PUBCHEM_COORDINATE_TYPE>
1
5
255

> <PUBCHEM_BONDANNOTATIONS>
17  1  3
20  1  6
19  27  5
26  28  5
18  4  5
21  5  6
22  6  6
23  7  5
25  8  5
24  9  6

$$$$
