 
  -OEChem-10192103352D

 36 37  0     1  0  0  0  0  0999 V2000
    7.7436    2.5223    0.0000 O   0  0  0  0  0  0  0  0  0  0  0  0
    4.2690   -2.5223    0.0000 O   0  0  0  0  0  0  0  0  0  0  0  0
    9.5331    0.5052    0.0000 O   0  0  0  0  0  0  0  0  0  0  0  0
    2.5369   -0.5223    0.0000 O   0  0  0  0  0  0  0  0  0  0  0  0
    6.0117    2.5023    0.0000 O   0  0  0  0  0  0  0  0  0  0  0  0
    6.0010   -2.5223    0.0000 O   0  0  0  0  0  0  0  0  0  0  0  0
    8.6613    2.0019    0.0000 O   0  0  0  0  0  0  0  0  0  0  0  0
    3.4030   -2.0223    0.0000 O   0  0  0  0  0  0  0  0  0  0  0  0
    6.8950    1.0124    0.0000 C   0  0  3  0  0  0  0  0  0  0  0  0
    5.1350   -1.0223    0.0000 C   0  0  3  0  0  0  0  0  0  0  0  0
    6.0010    0.4777    0.0000 C   0  0  0  0  0  0  0  0  0  0  0  0
    6.0010   -0.5223    0.0000 C   0  0  0  0  0  0  0  0  0  0  0  0
    7.8010    0.4985    0.0000 C   0  0  3  0  0  0  0  0  0  0  0  0
    4.2690   -0.5223    0.0000 C   0  0  3  0  0  0  0  0  0  0  0  0
    7.8010   -0.5431    0.0000 C   0  0  0  0  0  0  0  0  0  0  0  0
    4.2690    0.4777    0.0000 C   0  0  0  0  0  0  0  0  0  0  0  0
    5.1350    0.9777    0.0000 C   0  0  0  0  0  0  0  0  0  0  0  0
    6.8950   -1.0569    0.0000 C   0  0  0  0  0  0  0  0  0  0  0  0
    6.8834    2.0123    0.0000 C   0  0  0  0  0  0  0  0  0  0  0  0
    5.1350   -2.0223    0.0000 C   0  0  0  0  0  0  0  0  0  0  0  0
    8.6651    1.0019    0.0000 C   0  0  0  0  0  0  0  0  0  0  0  0
    3.4030   -1.0223    0.0000 C   0  0  0  0  0  0  0  0  0  0  0  0
    6.3539    1.3151    0.0000 H   0  0  0  0  0  0  0  0  0  0  0  0
    5.6720   -1.3323    0.0000 H   0  0  0  0  0  0  0  0  0  0  0  0
    7.7975    1.1185    0.0000 H   0  0  0  0  0  0  0  0  0  0  0  0
    3.7320   -0.2123    0.0000 H   0  0  0  0  0  0  0  0  0  0  0  0
    8.0101   -1.1268    0.0000 H   0  0  0  0  0  0  0  0  0  0  0  0
    8.4119   -0.4370    0.0000 H   0  0  0  0  0  0  0  0  0  0  0  0
    4.0569    1.0603    0.0000 H   0  0  0  0  0  0  0  0  0  0  0  0
    3.6584    0.3701    0.0000 H   0  0  0  0  0  0  0  0  0  0  0  0
    5.1350    1.5977    0.0000 H   0  0  0  0  0  0  0  0  0  0  0  0
    6.8878   -1.6769    0.0000 H   0  0  0  0  0  0  0  0  0  0  0  0
    7.7364    3.1423    0.0000 H   0  0  0  0  0  0  0  0  0  0  0  0
    4.2690   -3.1423    0.0000 H   0  0  0  0  0  0  0  0  0  0  0  0
   10.0688    0.8173    0.0000 H   0  0  0  0  0  0  0  0  0  0  0  0
    2.0000   -0.8323    0.0000 H   0  0  0  0  0  0  0  0  0  0  0  0
  1 19  1  0  0  0  0
  1 33  1  0  0  0  0
  2 20  1  0  0  0  0
  2 34  1  0  0  0  0
  3 21  1  0  0  0  0
  3 35  1  0  0  0  0
  4 22  1  0  0  0  0
  4 36  1  0  0  0  0
  5 19  2  0  0  0  0
  6 20  2  0  0  0  0
  7 21  2  0  0  0  0
  8 22  2  0  0  0  0
  9 11  1  0  0  0  0
  9 13  1  0  0  0  0
  9 19  1  0  0  0  0
  9 23  1  0  0  0  0
 10 12  1  0  0  0  0
 10 14  1  0  0  0  0
 10 20  1  0  0  0  0
 10 24  1  0  0  0  0
 11 12  1  0  0  0  0
 11 17  2  0  0  0  0
 12 18  2  0  0  0  0
 13 15  1  0  0  0  0
 13 21  1  0  0  0  0
 13 25  1  0  0  0  0
 14 16  1  0  0  0  0
 14 22  1  0  0  0  0
 14 26  1  0  0  0  0
 15 18  1  0  0  0  0
 15 27  1  0  0  0  0
 15 28  1  0  0  0  0
 16 17  1  0  0  0  0
 16 29  1  0  0  0  0
 16 30  1  0  0  0  0
 17 31  1  0  0  0  0
 18 32  1  0  0  0  0
M  END
> <PUBCHEM_COMPOUND_CID>
138705704

> <PUBCHEM_COMPOUND_CANONICALIZED>
1

> <PUBCHEM_CACTVS_COMPLEXITY>
560

> <PUBCHEM_CACTVS_HBOND_ACCEPTOR>
8

> <PUBCHEM_CACTVS_HBOND_DONOR>
4

> <PUBCHEM_CACTVS_ROTATABLE_BOND>
4

> <PUBCHEM_CACTVS_SUBSKEYS>
AAADccBwPAAAAAAAAAAAAAAAAAAAAAAAAAAgQAAAAAAAAACAAAAAGgAACAAADQCAgAAACAAAAgCIAiDSCAAAAAAgAAAACAEAAAgIABIAAQAAQAAEwAAIgAPLyPCOgAAAAAAAAAAAAAAAAAAAAAAAAAAAAA==

> <PUBCHEM_IUPAC_OPENEYE_NAME>
1,2,3,5,6,7-hexahydronaphthalene-1,2,5,6-tetracarboxylic acid

> <PUBCHEM_IUPAC_CAS_NAME>
1,2,3,5,6,7-hexahydronaphthalene-1,2,5,6-tetracarboxylic acid

> <PUBCHEM_IUPAC_NAME_MARKUP>
1,2,3,5,6,7-hexahydronaphthalene-1,2,5,6-tetracarboxylic acid

> <PUBCHEM_IUPAC_NAME>
1,2,3,5,6,7-hexahydronaphthalene-1,2,5,6-tetracarboxylic acid

> <PUBCHEM_IUPAC_SYSTEMATIC_NAME>
1,2,3,5,6,7-hexahydronaphthalene-1,2,5,6-tetracarboxylic acid

> <PUBCHEM_IUPAC_TRADITIONAL_NAME>
1,2,3,5,6,7-hexahydronaphthalene-1,2,5,6-tetracarboxylic acid

> <PUBCHEM_IUPAC_INCHI>
InChI=1S/C14H14O8/c15-11(16)7-3-1-5-6(10(7)14(21)22)2-4-8(12(17)18)9(5)13(19)20/h1-2,7-10H,3-4H2,(H,15,16)(H,17,18)(H,19,20)(H,21,22)

> <PUBCHEM_IUPAC_INCHIKEY>
RJNUMNJLGUCABT-UHFFFAOYSA-N

> <PUBCHEM_XLOGP3_AA>
-0.9

> <PUBCHEM_EXACT_MASS>
310.06886740

> <PUBCHEM_MOLECULAR_FORMULA>
C14H14O8

> <PUBCHEM_MOLECULAR_WEIGHT>
310.26

> <PUBCHEM_OPENEYE_CAN_SMILES>
C1C=C2C(C(CC=C2C(C1C(=O)O)C(=O)O)C(=O)O)C(=O)O

> <PUBCHEM_OPENEYE_ISO_SMILES>
C1C=C2C(C(CC=C2C(C1C(=O)O)C(=O)O)C(=O)O)C(=O)O

> <PUBCHEM_CACTVS_TPSA>
149

> <PUBCHEM_MONOISOTOPIC_WEIGHT>
310.06886740

> <PUBCHEM_TOTAL_CHARGE>
0

> <PUBCHEM_HEAVY_ATOM_COUNT>
22

> <PUBCHEM_ATOM_DEF_STEREO_COUNT>
0

> <PUBCHEM_ATOM_UDEF_STEREO_COUNT>
4

> <PUBCHEM_BOND_DEF_STEREO_COUNT>
0

> <PUBCHEM_BOND_UDEF_STEREO_COUNT>
0

> <PUBCHEM_ISOTOPIC_ATOM_COUNT>
0

> <PUBCHEM_COMPONENT_COUNT>
1

> <PUBCHEM_CACTVS_TAUTO_COUNT>
-1

> <PUBCHEM_COORDINATE_TYPE>
1
5
255

> <PUBCHEM_BONDANNOTATIONS>
10  20  3
13  21  3
14  22  3
9  19  3

$$$$
