 
  -OEChem-10192103592D

 94100  0     1  0  0  0  0  0999 V2000
    6.8671   -3.4585    0.0000 O   0  0  0  0  0  0  0  0  0  0  0  0
    5.1350   -3.4585    0.0000 O   0  0  0  0  0  0  0  0  0  0  0  0
    7.7331   -0.9585    0.0000 O   0  0  0  0  0  0  0  0  0  0  0  0
    6.8671   -5.4585    0.0000 O   0  0  0  0  0  0  0  0  0  0  0  0
    5.1350   -6.4585    0.0000 O   0  0  0  0  0  0  0  0  0  0  0  0
    3.4030   -5.4585    0.0000 O   0  0  0  0  0  0  0  0  0  0  0  0
    7.7341    3.0802    0.0000 O   0  0  0  0  0  0  0  0  0  0  0  0
    2.5369   -3.9585    0.0000 O   0  0  0  0  0  0  0  0  0  0  0  0
    4.2308   -0.9616    0.0000 O   0  0  0  0  0  0  0  0  0  0  0  0
    5.1210    1.6141    0.0000 O   0  0  0  0  0  0  0  0  0  0  0  0
    8.6616    5.6320    0.0000 O   0  0  0  0  0  0  0  0  0  0  0  0
    9.4752    0.0530    0.0000 O   0  0  0  0  0  0  0  0  0  0  0  0
   11.2419    3.0328    0.0000 O   0  0  0  0  0  0  0  0  0  0  0  0
   11.1972   -1.9585    0.0000 O   0  0  0  0  0  0  0  0  0  0  0  0
   11.1972   -3.9585    0.0000 O   0  0  0  0  0  0  0  0  0  0  0  0
    4.2896    6.1485    0.0000 O   0  0  0  0  0  0  0  0  0  0  0  0
    6.8671   -2.4585    0.0000 C   0  0  3  0  0  0  0  0  0  0  0  0
    6.0010   -3.9585    0.0000 C   0  0  2  0  0  0  0  0  0  0  0  0
    6.0010   -4.9585    0.0000 C   0  0  1  0  0  0  0  0  0  0  0  0
    5.1350   -5.4585    0.0000 C   0  0  2  0  0  0  0  0  0  0  0  0
    7.7331   -1.9585    0.0000 C   0  0  3  0  0  0  0  0  0  0  0  0
    4.2690   -4.9585    0.0000 C   0  0  1  0  0  0  0  0  0  0  0  0
    6.0010   -1.9585    0.0000 C   0  0  0  0  0  0  0  0  0  0  0  0
    4.2690   -3.9585    0.0000 C   0  0  1  0  0  0  0  0  0  0  0  0
    6.0010   -0.9585    0.0000 C   0  0  0  0  0  0  0  0  0  0  0  0
    6.8671   -0.4585    0.0000 C   0  0  0  0  0  0  0  0  0  0  0  0
    7.7549    1.0730    0.0000 C   0  0  3  0  0  0  0  0  0  0  0  0
    6.8831    0.5830    0.0000 C   0  0  0  0  0  0  0  0  0  0  0  0
    8.5991   -2.4585    0.0000 C   0  0  0  0  0  0  0  0  0  0  0  0
    8.6266    1.5629    0.0000 C   0  0  0  0  0  0  0  0  0  0  0  0
    3.4030   -3.4585    0.0000 C   0  0  0  0  0  0  0  0  0  0  0  0
    5.0910   -0.4516    0.0000 C   0  0  0  0  0  0  0  0  0  0  0  0
    8.6382    2.5629    0.0000 C   0  0  0  0  0  0  0  0  0  0  0  0
    5.9851    1.1108    0.0000 C   0  0  0  0  0  0  0  0  0  0  0  0
    8.6462    4.6322    0.0000 C   0  0  3  0  0  0  0  0  0  0  0  0
    9.5099    3.0528    0.0000 C   0  0  0  0  0  0  0  0  0  0  0  0
    7.7381    4.1218    0.0000 C   0  0  3  0  0  0  0  0  0  0  0  0
    9.5380    4.0941    0.0000 C   0  0  0  0  0  0  0  0  0  0  0  0
    8.6151    0.5630    0.0000 C   0  0  0  0  0  0  0  0  0  0  0  0
    5.0830    0.5900    0.0000 C   0  0  0  0  0  0  0  0  0  0  0  0
    9.4868    1.0529    0.0000 C   0  0  0  0  0  0  0  0  0  0  0  0
    9.4651   -1.9585    0.0000 C   0  0  0  0  0  0  0  0  0  0  0  0
    8.5991   -3.4585    0.0000 C   0  0  0  0  0  0  0  0  0  0  0  0
   10.3701    2.5428    0.0000 C   0  0  0  0  0  0  0  0  0  0  0  0
    6.8760    4.6285    0.0000 C   0  0  0  0  0  0  0  0  0  0  0  0
   10.3586    1.5429    0.0000 C   0  0  0  0  0  0  0  0  0  0  0  0
   10.3312   -2.4585    0.0000 C   0  0  0  0  0  0  0  0  0  0  0  0
    9.4651   -3.9585    0.0000 C   0  0  0  0  0  0  0  0  0  0  0  0
   10.3312   -3.4585    0.0000 C   0  0  0  0  0  0  0  0  0  0  0  0
    6.0061    4.1352    0.0000 C   0  0  0  0  0  0  0  0  0  0  0  0
    6.8837    5.6284    0.0000 C   0  0  0  0  0  0  0  0  0  0  0  0
    5.1440    4.6419    0.0000 C   0  0  0  0  0  0  0  0  0  0  0  0
    6.0215    6.1351    0.0000 C   0  0  0  0  0  0  0  0  0  0  0  0
    5.1517    5.6418    0.0000 C   0  0  0  0  0  0  0  0  0  0  0  0
    7.4040   -2.7685    0.0000 H   0  0  0  0  0  0  0  0  0  0  0  0
    6.0010   -3.3385    0.0000 H   0  0  0  0  0  0  0  0  0  0  0  0
    6.0010   -5.5785    0.0000 H   0  0  0  0  0  0  0  0  0  0  0  0
    4.5981   -5.7685    0.0000 H   0  0  0  0  0  0  0  0  0  0  0  0
    8.2700   -1.6485    0.0000 H   0  0  0  0  0  0  0  0  0  0  0  0
    4.2690   -5.5785    0.0000 H   0  0  0  0  0  0  0  0  0  0  0  0
    5.3905   -1.8508    0.0000 H   0  0  0  0  0  0  0  0  0  0  0  0
    5.7890   -2.5411    0.0000 H   0  0  0  0  0  0  0  0  0  0  0  0
    4.2690   -3.3385    0.0000 H   0  0  0  0  0  0  0  0  0  0  0  0
    7.7477    0.4530    0.0000 H   0  0  0  0  0  0  0  0  0  0  0  0
    3.8015   -2.9835    0.0000 H   0  0  0  0  0  0  0  0  0  0  0  0
    3.0044   -2.9835    0.0000 H   0  0  0  0  0  0  0  0  0  0  0  0
    9.1884    4.9328    0.0000 H   0  0  0  0  0  0  0  0  0  0  0  0
    7.7441    4.7418    0.0000 H   0  0  0  0  0  0  0  0  0  0  0  0
   10.1458    3.9715    0.0000 H   0  0  0  0  0  0  0  0  0  0  0  0
    9.7628    4.6719    0.0000 H   0  0  0  0  0  0  0  0  0  0  0  0
    8.2989    0.0297    0.0000 H   0  0  0  0  0  0  0  0  0  0  0  0
    9.1484    0.2468    0.0000 H   0  0  0  0  0  0  0  0  0  0  0  0
    8.9312    1.0963    0.0000 H   0  0  0  0  0  0  0  0  0  0  0  0
    6.8671   -6.0785    0.0000 H   0  0  0  0  0  0  0  0  0  0  0  0
    4.5449    0.8979    0.0000 H   0  0  0  0  0  0  0  0  0  0  0  0
    4.5981   -6.7685    0.0000 H   0  0  0  0  0  0  0  0  0  0  0  0
    3.4030   -6.0785    0.0000 H   0  0  0  0  0  0  0  0  0  0  0  0
    9.4651   -1.3385    0.0000 H   0  0  0  0  0  0  0  0  0  0  0  0
    8.0622   -3.7685    0.0000 H   0  0  0  0  0  0  0  0  0  0  0  0
   10.8919    1.2267    0.0000 H   0  0  0  0  0  0  0  0  0  0  0  0
    2.0000   -3.6485    0.0000 H   0  0  0  0  0  0  0  0  0  0  0  0
    9.4651   -4.5785    0.0000 H   0  0  0  0  0  0  0  0  0  0  0  0
    3.6904   -0.6579    0.0000 H   0  0  0  0  0  0  0  0  0  0  0  0
    5.1234    2.2341    0.0000 H   0  0  0  0  0  0  0  0  0  0  0  0
    9.2032    5.9337    0.0000 H   0  0  0  0  0  0  0  0  0  0  0  0
    6.0013    3.5152    0.0000 H   0  0  0  0  0  0  0  0  0  0  0  0
    7.4230    5.9343    0.0000 H   0  0  0  0  0  0  0  0  0  0  0  0
   10.0086   -0.2632    0.0000 H   0  0  0  0  0  0  0  0  0  0  0  0
   11.7752    2.7166    0.0000 H   0  0  0  0  0  0  0  0  0  0  0  0
    4.6047    4.3360    0.0000 H   0  0  0  0  0  0  0  0  0  0  0  0
    6.0263    6.7551    0.0000 H   0  0  0  0  0  0  0  0  0  0  0  0
   11.1972   -1.3385    0.0000 H   0  0  0  0  0  0  0  0  0  0  0  0
   11.1972   -4.5785    0.0000 H   0  0  0  0  0  0  0  0  0  0  0  0
    4.2944    6.7685    0.0000 H   0  0  0  0  0  0  0  0  0  0  0  0
  1 17  1  0  0  0  0
 18  1  1  1  0  0  0
  2 18  1  0  0  0  0
  2 24  1  0  0  0  0
  3 21  1  0  0  0  0
  3 26  1  0  0  0  0
 19  4  1  6  0  0  0
  4 74  1  0  0  0  0
 20  5  1  1  0  0  0
  5 76  1  0  0  0  0
 22  6  1  6  0  0  0
  6 77  1  0  0  0  0
  7 33  1  0  0  0  0
  7 37  1  0  0  0  0
  8 31  1  0  0  0  0
  8 81  1  0  0  0  0
  9 32  1  0  0  0  0
  9 83  1  0  0  0  0
 10 34  1  0  0  0  0
 10 84  1  0  0  0  0
 11 35  1  0  0  0  0
 11 85  1  0  0  0  0
 12 41  1  0  0  0  0
 12 88  1  0  0  0  0
 13 44  1  0  0  0  0
 13 89  1  0  0  0  0
 14 47  1  0  0  0  0
 14 92  1  0  0  0  0
 15 49  1  0  0  0  0
 15 93  1  0  0  0  0
 16 54  1  0  0  0  0
 16 94  1  0  0  0  0
 17 21  1  0  0  0  0
 17 23  1  0  0  0  0
 17 55  1  0  0  0  0
 18 19  1  0  0  0  0
 18 56  1  0  0  0  0
 19 20  1  0  0  0  0
 19 57  1  0  0  0  0
 20 22  1  0  0  0  0
 20 58  1  0  0  0  0
 21 29  1  0  0  0  0
 21 59  1  0  0  0  0
 22 24  1  0  0  0  0
 22 60  1  0  0  0  0
 23 25  1  0  0  0  0
 23 61  1  0  0  0  0
 23 62  1  0  0  0  0
 24 31  1  1  0  0  0
 24 63  1  0  0  0  0
 25 26  2  0  0  0  0
 25 32  1  0  0  0  0
 26 28  1  0  0  0  0
 27 28  1  0  0  0  0
 27 30  1  0  0  0  0
 27 39  1  0  0  0  0
 27 64  1  0  0  0  0
 28 34  2  0  0  0  0
 29 42  2  0  0  0  0
 29 43  1  0  0  0  0
 30 33  1  0  0  0  0
 30 41  2  0  0  0  0
 31 65  1  0  0  0  0
 31 66  1  0  0  0  0
 32 40  2  0  0  0  0
 33 36  2  0  0  0  0
 34 40  1  0  0  0  0
 35 37  1  0  0  0  0
 35 38  1  0  0  0  0
 35 67  1  0  0  0  0
 36 38  1  0  0  0  0
 36 44  1  0  0  0  0
 37 45  1  0  0  0  0
 37 68  1  0  0  0  0
 38 69  1  0  0  0  0
 38 70  1  0  0  0  0
 39 71  1  0  0  0  0
 39 72  1  0  0  0  0
 39 73  1  0  0  0  0
 40 75  1  0  0  0  0
 41 46  1  0  0  0  0
 42 47  1  0  0  0  0
 42 78  1  0  0  0  0
 43 48  2  0  0  0  0
 43 79  1  0  0  0  0
 44 46  2  0  0  0  0
 45 50  2  0  0  0  0
 45 51  1  0  0  0  0
 46 80  1  0  0  0  0
 47 49  2  0  0  0  0
 48 49  1  0  0  0  0
 48 82  1  0  0  0  0
 50 52  1  0  0  0  0
 50 86  1  0  0  0  0
 51 53  2  0  0  0  0
 51 87  1  0  0  0  0
 52 54  2  0  0  0  0
 52 90  1  0  0  0  0
 53 54  1  0  0  0  0
 53 91  1  0  0  0  0
M  END
> <PUBCHEM_COMPOUND_CID>
122217273

> <PUBCHEM_COMPOUND_CANONICALIZED>
1

> <PUBCHEM_CACTVS_COMPLEXITY>
1220

> <PUBCHEM_CACTVS_HBOND_ACCEPTOR>
16

> <PUBCHEM_CACTVS_HBOND_DONOR>
12

> <PUBCHEM_CACTVS_ROTATABLE_BOND>
7

> <PUBCHEM_CACTVS_SUBSKEYS>
AAADcfB8PgAAAAAAAAAAAAAAAAAAAAAAAAA0aNGCAAAAAACRVAAAGgAACAAADRSwmAMyDoAABgCAAiBCAAACCAAgIAAIiAAGiIgdNyKGMRqieCGlwBUPuAfA4PwOoAADCAAIQABAAAYQABCAAAAAAAAAAA==

> <PUBCHEM_IUPAC_OPENEYE_NAME>
8-[1-[2-(3,4-dihydroxyphenyl)-5,7-dihydroxy-3-[(2R,3R,4S,5S,6R)-3,4,5-trihydroxy-6-(hydroxymethyl)tetrahydropyran-2-yl]oxy-chroman-8-yl]ethyl]-2-(4-hydroxyphenyl)chromane-3,5,7-triol

> <PUBCHEM_IUPAC_CAS_NAME>
8-[1-[2-(3,4-dihydroxyphenyl)-5,7-dihydroxy-3-[[(2R,3R,4S,5S,6R)-3,4,5-trihydroxy-6-(hydroxymethyl)-2-oxanyl]oxy]-3,4-dihydro-2H-1-benzopyran-8-yl]ethyl]-2-(4-hydroxyphenyl)-3,4-dihydro-2H-1-benzopyran-3,5,7-triol

> <PUBCHEM_IUPAC_NAME_MARKUP>
8-[1-[2-(3,4-dihydroxyphenyl)-5,7-dihydroxy-3-[(2<I>R</I>,3<I>R</I>,4<I>S</I>,5<I>S</I>,6<I>R</I>)-3,4,5-trihydroxy-6-(hydroxymethyl)oxan-2-yl]oxy-3,4-dihydro-2<I>H</I>-chromen-8-yl]ethyl]-2-(4-hydroxyphenyl)-3,4-dihydro-2<I>H</I>-chromene-3,5,7-triol

> <PUBCHEM_IUPAC_NAME>
8-[1-[2-(3,4-dihydroxyphenyl)-5,7-dihydroxy-3-[(2R,3R,4S,5S,6R)-3,4,5-trihydroxy-6-(hydroxymethyl)oxan-2-yl]oxy-3,4-dihydro-2H-chromen-8-yl]ethyl]-2-(4-hydroxyphenyl)-3,4-dihydro-2H-chromene-3,5,7-triol

> <PUBCHEM_IUPAC_SYSTEMATIC_NAME>
8-[1-[2-[3,4-bis(oxidanyl)phenyl]-3-[(2R,3R,4S,5S,6R)-6-(hydroxymethyl)-3,4,5-tris(oxidanyl)oxan-2-yl]oxy-5,7-bis(oxidanyl)-3,4-dihydro-2H-chromen-8-yl]ethyl]-2-(4-hydroxyphenyl)-3,4-dihydro-2H-chromene-3,5,7-triol

> <PUBCHEM_IUPAC_TRADITIONAL_NAME>
8-[1-[2-(3,4-dihydroxyphenyl)-5,7-dihydroxy-3-[(2R,3R,4S,5S,6R)-3,4,5-trihydroxy-6-methylol-tetrahydropyran-2-yl]oxy-chroman-8-yl]ethyl]-2-(4-hydroxyphenyl)chroman-3,5,7-triol

> <PUBCHEM_IUPAC_INCHI>
InChI=1S/C38H40O16/c1-14(29-24(45)11-21(42)18-9-26(47)34(53-36(18)29)15-2-5-17(40)6-3-15)30-25(46)12-22(43)19-10-27(51-38-33(50)32(49)31(48)28(13-39)52-38)35(54-37(19)30)16-4-7-20(41)23(44)8-16/h2-8,11-12,14,26-28,31-35,38-50H,9-10,13H2,1H3/t14?,26?,27?,28-,31-,32+,33-,34?,35?,38-/m1/s1

> <PUBCHEM_IUPAC_INCHIKEY>
RDUAKBCMDVBPCN-XDTYZGJTSA-N

> <PUBCHEM_XLOGP3_AA>
1.9

> <PUBCHEM_EXACT_MASS>
752.23163518

> <PUBCHEM_MOLECULAR_FORMULA>
C38H40O16

> <PUBCHEM_MOLECULAR_WEIGHT>
752.7

> <PUBCHEM_OPENEYE_CAN_SMILES>
CC(C1=C(C=C(C2=C1OC(C(C2)O)C3=CC=C(C=C3)O)O)O)C4=C(C=C(C5=C4OC(C(C5)OC6C(C(C(C(O6)CO)O)O)O)C7=CC(=C(C=C7)O)O)O)O

> <PUBCHEM_OPENEYE_ISO_SMILES>
CC(C1=C(C=C(C2=C1OC(C(C2)O)C3=CC=C(C=C3)O)O)O)C4=C(C=C(C5=C4OC(C(C5)O[C@H]6[C@@H]([C@H]([C@@H]([C@H](O6)CO)O)O)O)C7=CC(=C(C=C7)O)O)O)O

> <PUBCHEM_CACTVS_TPSA>
280

> <PUBCHEM_MONOISOTOPIC_WEIGHT>
752.23163518

> <PUBCHEM_TOTAL_CHARGE>
0

> <PUBCHEM_HEAVY_ATOM_COUNT>
54

> <PUBCHEM_ATOM_DEF_STEREO_COUNT>
5

> <PUBCHEM_ATOM_UDEF_STEREO_COUNT>
5

> <PUBCHEM_BOND_DEF_STEREO_COUNT>
0

> <PUBCHEM_BOND_UDEF_STEREO_COUNT>
0

> <PUBCHEM_ISOTOPIC_ATOM_COUNT>
0

> <PUBCHEM_COMPONENT_COUNT>
1

> <PUBCHEM_CACTVS_TAUTO_COUNT>
-1

> <PUBCHEM_COORDINATE_TYPE>
1
5
255

> <PUBCHEM_BONDANNOTATIONS>
17  1  3
18  1  5
35  11  3
21  29  3
24  31  5
25  26  8
25  32  8
26  28  8
27  39  3
28  34  8
29  42  8
29  43  8
30  33  8
30  41  8
32  40  8
33  36  8
34  40  8
36  44  8
37  45  3
19  4  6
41  46  8
42  47  8
43  48  8
44  46  8
45  50  8
45  51  8
47  49  8
48  49  8
20  5  5
50  52  8
51  53  8
52  54  8
53  54  8
22  6  6

$$$$
