 
  -OEChem-10192104212D

 36 35  0     1  0  0  0  0  0999 V2000
    9.7942   -1.0950    0.0000 O   0  0  0  0  0  0  0  0  0  0  0  0
   11.5263   -0.0950    0.0000 O   0  0  0  0  0  0  0  0  0  0  0  0
   10.6603    1.4050    0.0000 O   0  0  0  0  0  0  0  0  0  0  0  0
    6.3301   -0.0950    0.0000 C   0  0  0  0  0  0  0  0  0  0  0  0
    7.1962    0.4050    0.0000 C   0  0  0  0  0  0  0  0  0  0  0  0
    5.4641    0.4050    0.0000 C   0  0  0  0  0  0  0  0  0  0  0  0
    8.0622   -0.0950    0.0000 C   0  0  0  0  0  0  0  0  0  0  0  0
    4.5981   -0.0950    0.0000 C   0  0  0  0  0  0  0  0  0  0  0  0
    3.7320    0.4050    0.0000 C   0  0  0  0  0  0  0  0  0  0  0  0
    8.9282    0.4050    0.0000 C   0  0  0  0  0  0  0  0  0  0  0  0
    2.8660   -0.0950    0.0000 C   0  0  0  0  0  0  0  0  0  0  0  0
    9.7942   -0.0950    0.0000 C   0  0  3  0  0  0  0  0  0  0  0  0
    2.0000    0.4050    0.0000 C   0  0  0  0  0  0  0  0  0  0  0  0
   10.6603    0.4050    0.0000 C   0  0  0  0  0  0  0  0  0  0  0  0
    5.9316   -0.5699    0.0000 H   0  0  0  0  0  0  0  0  0  0  0  0
    6.7287   -0.5699    0.0000 H   0  0  0  0  0  0  0  0  0  0  0  0
    7.5947    0.8799    0.0000 H   0  0  0  0  0  0  0  0  0  0  0  0
    6.7976    0.8799    0.0000 H   0  0  0  0  0  0  0  0  0  0  0  0
    5.8626    0.8799    0.0000 H   0  0  0  0  0  0  0  0  0  0  0  0
    5.0656    0.8799    0.0000 H   0  0  0  0  0  0  0  0  0  0  0  0
    7.6636   -0.5699    0.0000 H   0  0  0  0  0  0  0  0  0  0  0  0
    8.4607   -0.5699    0.0000 H   0  0  0  0  0  0  0  0  0  0  0  0
    4.1996   -0.5699    0.0000 H   0  0  0  0  0  0  0  0  0  0  0  0
    4.9966   -0.5699    0.0000 H   0  0  0  0  0  0  0  0  0  0  0  0
    4.1306    0.8799    0.0000 H   0  0  0  0  0  0  0  0  0  0  0  0
    3.3335    0.8799    0.0000 H   0  0  0  0  0  0  0  0  0  0  0  0
    9.3267    0.8799    0.0000 H   0  0  0  0  0  0  0  0  0  0  0  0
    8.5297    0.8799    0.0000 H   0  0  0  0  0  0  0  0  0  0  0  0
    2.4675   -0.5699    0.0000 H   0  0  0  0  0  0  0  0  0  0  0  0
    3.2646   -0.5699    0.0000 H   0  0  0  0  0  0  0  0  0  0  0  0
    9.0581   -0.5200    0.0000 H   0  0  0  0  0  0  0  0  0  0  0  0
    2.3100    0.9419    0.0000 H   0  0  0  0  0  0  0  0  0  0  0  0
    1.4631    0.7150    0.0000 H   0  0  0  0  0  0  0  0  0  0  0  0
    1.6900   -0.1319    0.0000 H   0  0  0  0  0  0  0  0  0  0  0  0
    9.2573   -1.4050    0.0000 H   0  0  0  0  0  0  0  0  0  0  0  0
   12.0632    0.2150    0.0000 H   0  0  0  0  0  0  0  0  0  0  0  0
  1 12  1  0  0  0  0
  1 35  1  0  0  0  0
  2 14  1  0  0  0  0
  2 36  1  0  0  0  0
  3 14  2  0  0  0  0
  4  5  1  0  0  0  0
  4  6  1  0  0  0  0
  4 15  1  0  0  0  0
  4 16  1  0  0  0  0
  5  7  1  0  0  0  0
  5 17  1  0  0  0  0
  5 18  1  0  0  0  0
  6  8  1  0  0  0  0
  6 19  1  0  0  0  0
  6 20  1  0  0  0  0
  7 10  1  0  0  0  0
  7 21  1  0  0  0  0
  7 22  1  0  0  0  0
  8  9  1  0  0  0  0
  8 23  1  0  0  0  0
  8 24  1  0  0  0  0
  9 11  1  0  0  0  0
  9 25  1  0  0  0  0
  9 26  1  0  0  0  0
 10 12  1  0  0  0  0
 10 27  1  0  0  0  0
 10 28  1  0  0  0  0
 11 13  1  0  0  0  0
 11 29  1  0  0  0  0
 11 30  1  0  0  0  0
 12 14  1  0  0  0  0
 12 31  1  0  0  0  0
 13 32  1  0  0  0  0
 13 33  1  0  0  0  0
 13 34  1  0  0  0  0
M  END
> <PUBCHEM_COMPOUND_CID>
5282899

> <PUBCHEM_COMPOUND_CANONICALIZED>
1

> <PUBCHEM_CACTVS_COMPLEXITY>
146

> <PUBCHEM_CACTVS_HBOND_ACCEPTOR>
3

> <PUBCHEM_CACTVS_HBOND_DONOR>
2

> <PUBCHEM_CACTVS_ROTATABLE_BOND>
9

> <PUBCHEM_CACTVS_SUBSKEYS>
AAADceBwMAAAAAAAAAAAAAAAAAAAAAAAAAAAAAAAAAAAAAAAAAAAGgAACAAACBSggAICCAAAAgAIAACQCAIAAAAAAAAAAAFAAAABEBIAAAAAQAAEAAABAAGIyKCAAAAAAAAAAAAAAAAAAAAAAAAAAAAAAA==

> <PUBCHEM_IUPAC_OPENEYE_NAME>
2-hydroxyundecanoic acid

> <PUBCHEM_IUPAC_CAS_NAME>
2-hydroxyundecanoic acid

> <PUBCHEM_IUPAC_NAME_MARKUP>
2-hydroxyundecanoic acid

> <PUBCHEM_IUPAC_NAME>
2-hydroxyundecanoic acid

> <PUBCHEM_IUPAC_SYSTEMATIC_NAME>
2-oxidanylundecanoic acid

> <PUBCHEM_IUPAC_TRADITIONAL_NAME>
2-hydroxyundecanoic acid

> <PUBCHEM_IUPAC_INCHI>
InChI=1S/C11H22O3/c1-2-3-4-5-6-7-8-9-10(12)11(13)14/h10,12H,2-9H2,1H3,(H,13,14)

> <PUBCHEM_IUPAC_INCHIKEY>
MNRBGFKCVTVNBA-UHFFFAOYSA-N

> <PUBCHEM_XLOGP3_AA>
3.7

> <PUBCHEM_EXACT_MASS>
202.15689456

> <PUBCHEM_MOLECULAR_FORMULA>
C11H22O3

> <PUBCHEM_MOLECULAR_WEIGHT>
202.29

> <PUBCHEM_OPENEYE_CAN_SMILES>
CCCCCCCCCC(C(=O)O)O

> <PUBCHEM_OPENEYE_ISO_SMILES>
CCCCCCCCCC(C(=O)O)O

> <PUBCHEM_CACTVS_TPSA>
57.5

> <PUBCHEM_MONOISOTOPIC_WEIGHT>
202.15689456

> <PUBCHEM_TOTAL_CHARGE>
0

> <PUBCHEM_HEAVY_ATOM_COUNT>
14

> <PUBCHEM_ATOM_DEF_STEREO_COUNT>
0

> <PUBCHEM_ATOM_UDEF_STEREO_COUNT>
1

> <PUBCHEM_BOND_DEF_STEREO_COUNT>
0

> <PUBCHEM_BOND_UDEF_STEREO_COUNT>
0

> <PUBCHEM_ISOTOPIC_ATOM_COUNT>
0

> <PUBCHEM_COMPONENT_COUNT>
1

> <PUBCHEM_CACTVS_TAUTO_COUNT>
1

> <PUBCHEM_COORDINATE_TYPE>
1
5
255

> <PUBCHEM_BONDANNOTATIONS>
12  31  3

$$$$
