 
  -OEChem-10192104452D

 66 68  0     1  0  0  0  0  0999 V2000
    6.8671   -1.4050    0.0000 O   0  0  0  0  0  0  0  0  0  0  0  0
    6.8671    0.5950    0.0000 O   0  0  0  0  0  0  0  0  0  0  0  0
    5.1350    0.5950    0.0000 O   0  0  0  0  0  0  0  0  0  0  0  0
    6.0010   -2.9050    0.0000 O   0  0  0  0  0  0  0  0  0  0  0  0
    6.0010    3.0950    0.0000 O   0  0  0  0  0  0  0  0  0  0  0  0
    5.1350   -2.4050    0.0000 O   0  0  0  0  0  0  0  0  0  0  0  0
    3.4030   -1.4050    0.0000 O   0  0  0  0  0  0  0  0  0  0  0  0
    8.5991    1.5950    0.0000 O   0  0  0  0  0  0  0  0  0  0  0  0
    8.5991   -2.4050    0.0000 O   0  0  0  0  0  0  0  0  0  0  0  0
    8.5991    3.5950    0.0000 O   0  0  0  0  0  0  0  0  0  0  0  0
    8.5991   -4.4050    0.0000 O   0  0  0  0  0  0  0  0  0  0  0  0
    6.8671   -5.4050    0.0000 O   0  0  0  0  0  0  0  0  0  0  0  0
    5.1350    1.5950    0.0000 O   0  0  0  0  0  0  0  0  0  0  0  0
    2.5369    0.0950    0.0000 O   0  0  0  0  0  0  0  0  0  0  0  0
    5.1350   -5.4050    0.0000 O   0  0  0  0  0  0  0  0  0  0  0  0
    6.0010    5.0950    0.0000 O   0  0  0  0  0  0  0  0  0  0  0  0
    6.0010   -0.9050    0.0000 C   0  0  1  0  0  0  0  0  0  0  0  0
    6.0010    0.0950    0.0000 C   0  0  1  0  0  0  0  0  0  0  0  0
    5.1350   -1.4050    0.0000 C   0  0  2  0  0  0  0  0  0  0  0  0
    4.2690   -0.9050    0.0000 C   0  0  1  0  0  0  0  0  0  0  0  0
    6.8671    1.5950    0.0000 C   0  0  2  0  0  0  0  0  0  0  0  0
    4.2690    0.0950    0.0000 C   0  0  1  0  0  0  0  0  0  0  0  0
    6.8671   -2.4050    0.0000 C   0  0  1  0  0  0  0  0  0  0  0  0
    7.7331    2.0950    0.0000 C   0  0  2  0  0  0  0  0  0  0  0  0
    7.7331   -2.9050    0.0000 C   0  0  1  0  0  0  0  0  0  0  0  0
    7.7331    3.0950    0.0000 C   0  0  1  0  0  0  0  0  0  0  0  0
    7.7331   -3.9050    0.0000 C   0  0  2  0  0  0  0  0  0  0  0  0
    6.8671   -4.4050    0.0000 C   0  0  1  0  0  0  0  0  0  0  0  0
    6.0010    2.0950    0.0000 C   0  0  1  0  0  0  0  0  0  0  0  0
    6.0010   -3.9050    0.0000 C   0  0  1  0  0  0  0  0  0  0  0  0
    6.8671    3.5950    0.0000 C   0  0  1  0  0  0  0  0  0  0  0  0
    3.4030    0.5950    0.0000 C   0  0  0  0  0  0  0  0  0  0  0  0
    5.1350   -4.4050    0.0000 C   0  0  0  0  0  0  0  0  0  0  0  0
    6.8671    4.5950    0.0000 C   0  0  0  0  0  0  0  0  0  0  0  0
    6.0010   -1.5250    0.0000 H   0  0  0  0  0  0  0  0  0  0  0  0
    6.0010    0.7150    0.0000 H   0  0  0  0  0  0  0  0  0  0  0  0
    4.5981   -1.7150    0.0000 H   0  0  0  0  0  0  0  0  0  0  0  0
    4.2690   -1.5250    0.0000 H   0  0  0  0  0  0  0  0  0  0  0  0
    7.4040    1.2850    0.0000 H   0  0  0  0  0  0  0  0  0  0  0  0
    4.2690    0.7150    0.0000 H   0  0  0  0  0  0  0  0  0  0  0  0
    7.4040   -2.0950    0.0000 H   0  0  0  0  0  0  0  0  0  0  0  0
    7.7331    1.4750    0.0000 H   0  0  0  0  0  0  0  0  0  0  0  0
    8.2700   -3.2150    0.0000 H   0  0  0  0  0  0  0  0  0  0  0  0
    8.2700    2.7850    0.0000 H   0  0  0  0  0  0  0  0  0  0  0  0
    7.7331   -4.5250    0.0000 H   0  0  0  0  0  0  0  0  0  0  0  0
    7.4040   -4.7150    0.0000 H   0  0  0  0  0  0  0  0  0  0  0  0
    6.0010    1.4750    0.0000 H   0  0  0  0  0  0  0  0  0  0  0  0
    5.4641   -3.5950    0.0000 H   0  0  0  0  0  0  0  0  0  0  0  0
    6.3301    3.9050    0.0000 H   0  0  0  0  0  0  0  0  0  0  0  0
    3.8015    1.0700    0.0000 H   0  0  0  0  0  0  0  0  0  0  0  0
    3.0044    1.0700    0.0000 H   0  0  0  0  0  0  0  0  0  0  0  0
    4.5981   -2.7150    0.0000 H   0  0  0  0  0  0  0  0  0  0  0  0
    4.9230   -3.8224    0.0000 H   0  0  0  0  0  0  0  0  0  0  0  0
    4.5244   -4.5127    0.0000 H   0  0  0  0  0  0  0  0  0  0  0  0
    7.4776    4.4873    0.0000 H   0  0  0  0  0  0  0  0  0  0  0  0
    7.0791    5.1776    0.0000 H   0  0  0  0  0  0  0  0  0  0  0  0
    3.4030   -2.0250    0.0000 H   0  0  0  0  0  0  0  0  0  0  0  0
    9.1360    1.9050    0.0000 H   0  0  0  0  0  0  0  0  0  0  0  0
    9.1360   -2.7150    0.0000 H   0  0  0  0  0  0  0  0  0  0  0  0
    8.5991    4.2150    0.0000 H   0  0  0  0  0  0  0  0  0  0  0  0
    9.1360   -4.0950    0.0000 H   0  0  0  0  0  0  0  0  0  0  0  0
    7.4040   -5.7150    0.0000 H   0  0  0  0  0  0  0  0  0  0  0  0
    4.5981    1.9050    0.0000 H   0  0  0  0  0  0  0  0  0  0  0  0
    2.0000    0.4050    0.0000 H   0  0  0  0  0  0  0  0  0  0  0  0
    4.5981   -5.7150    0.0000 H   0  0  0  0  0  0  0  0  0  0  0  0
    6.0010    5.7150    0.0000 H   0  0  0  0  0  0  0  0  0  0  0  0
 17  1  1  6  0  0  0
 23  1  1  6  0  0  0
 18  2  1  6  0  0  0
 21  2  1  1  0  0  0
  3 18  1  0  0  0  0
  3 22  1  0  0  0  0
  4 23  1  0  0  0  0
  4 30  1  0  0  0  0
  5 29  1  0  0  0  0
  5 31  1  0  0  0  0
 19  6  1  1  0  0  0
  6 52  1  0  0  0  0
 20  7  1  6  0  0  0
  7 57  1  0  0  0  0
 24  8  1  6  0  0  0
  8 58  1  0  0  0  0
 25  9  1  6  0  0  0
  9 59  1  0  0  0  0
 26 10  1  1  0  0  0
 10 60  1  0  0  0  0
 27 11  1  1  0  0  0
 11 61  1  0  0  0  0
 28 12  1  6  0  0  0
 12 62  1  0  0  0  0
 29 13  1  6  0  0  0
 13 63  1  0  0  0  0
 14 32  1  0  0  0  0
 14 64  1  0  0  0  0
 15 33  1  0  0  0  0
 15 65  1  0  0  0  0
 16 34  1  0  0  0  0
 16 66  1  0  0  0  0
 17 18  1  0  0  0  0
 17 19  1  0  0  0  0
 17 35  1  0  0  0  0
 18 36  1  0  0  0  0
 19 20  1  0  0  0  0
 19 37  1  0  0  0  0
 20 22  1  0  0  0  0
 20 38  1  0  0  0  0
 21 24  1  0  0  0  0
 21 29  1  0  0  0  0
 21 39  1  0  0  0  0
 22 32  1  1  0  0  0
 22 40  1  0  0  0  0
 23 25  1  0  0  0  0
 23 41  1  0  0  0  0
 24 26  1  0  0  0  0
 24 42  1  0  0  0  0
 25 27  1  0  0  0  0
 25 43  1  0  0  0  0
 26 31  1  0  0  0  0
 26 44  1  0  0  0  0
 27 28  1  0  0  0  0
 27 45  1  0  0  0  0
 28 30  1  0  0  0  0
 28 46  1  0  0  0  0
 29 47  1  0  0  0  0
 30 33  1  1  0  0  0
 30 48  1  0  0  0  0
 31 34  1  6  0  0  0
 31 49  1  0  0  0  0
 32 50  1  0  0  0  0
 32 51  1  0  0  0  0
 33 53  1  0  0  0  0
 33 54  1  0  0  0  0
 34 55  1  0  0  0  0
 34 56  1  0  0  0  0
M  END
> <PUBCHEM_COMPOUND_CID>
10962207

> <PUBCHEM_COMPOUND_CANONICALIZED>
1

> <PUBCHEM_CACTVS_COMPLEXITY>
641

> <PUBCHEM_CACTVS_HBOND_ACCEPTOR>
16

> <PUBCHEM_CACTVS_HBOND_DONOR>
11

> <PUBCHEM_CACTVS_ROTATABLE_BOND>
7

> <PUBCHEM_CACTVS_SUBSKEYS>
AAADcfB4PgAAAAAAAAAAAAAAAAAAAAAAAAAkSJAAAAAAAAAAAAAAGgAACAAACBSwgAMACAAABgAAAAAAAAAAAAAAAAAAAAAAAAAREAIAAAAiQAAFAAAHAAHAYAwAAAAAAAAAAAAAAAAAAAAAAAAAAAAAAA==

> <PUBCHEM_IUPAC_OPENEYE_NAME>
(2R,3R,4S,5S,6R)-3-[(2R,3R,4S,5S,6R)-4,5-dihydroxy-6-(hydroxymethyl)-3-[(2R,3R,4S,5S,6R)-3,4,5-trihydroxy-6-(hydroxymethyl)tetrahydropyran-2-yl]oxy-tetrahydropyran-2-yl]oxy-6-(hydroxymethyl)tetrahydropyran-2,4,5-triol

> <PUBCHEM_IUPAC_CAS_NAME>
(2R,3R,4S,5S,6R)-3-[[(2R,3R,4S,5S,6R)-4,5-dihydroxy-6-(hydroxymethyl)-3-[[(2R,3R,4S,5S,6R)-3,4,5-trihydroxy-6-(hydroxymethyl)-2-oxanyl]oxy]-2-oxanyl]oxy]-6-(hydroxymethyl)oxane-2,4,5-triol

> <PUBCHEM_IUPAC_NAME_MARKUP>
(2<I>R</I>,3<I>R</I>,4<I>S</I>,5<I>S</I>,6<I>R</I>)-3-[(2<I>R</I>,3<I>R</I>,4<I>S</I>,5<I>S</I>,6<I>R</I>)-4,5-dihydroxy-6-(hydroxymethyl)-3-[(2<I>R</I>,3<I>R</I>,4<I>S</I>,5<I>S</I>,6<I>R</I>)-3,4,5-trihydroxy-6-(hydroxymethyl)oxan-2-yl]oxyoxan-2-yl]oxy-6-(hydroxymethyl)oxane-2,4,5-triol

> <PUBCHEM_IUPAC_NAME>
(2R,3R,4S,5S,6R)-3-[(2R,3R,4S,5S,6R)-4,5-dihydroxy-6-(hydroxymethyl)-3-[(2R,3R,4S,5S,6R)-3,4,5-trihydroxy-6-(hydroxymethyl)oxan-2-yl]oxyoxan-2-yl]oxy-6-(hydroxymethyl)oxane-2,4,5-triol

> <PUBCHEM_IUPAC_SYSTEMATIC_NAME>
(2R,3R,4S,5S,6R)-6-(hydroxymethyl)-3-[(2R,3R,4S,5S,6R)-6-(hydroxymethyl)-3-[(2R,3R,4S,5S,6R)-6-(hydroxymethyl)-3,4,5-tris(oxidanyl)oxan-2-yl]oxy-4,5-bis(oxidanyl)oxan-2-yl]oxy-oxane-2,4,5-triol

> <PUBCHEM_IUPAC_TRADITIONAL_NAME>
(2R,3R,4S,5S,6R)-3-[(2R,3R,4S,5S,6R)-4,5-dihydroxy-6-methylol-3-[(2R,3R,4S,5S,6R)-3,4,5-trihydroxy-6-methylol-tetrahydropyran-2-yl]oxy-tetrahydropyran-2-yl]oxy-6-methylol-tetrahydropyran-2,4,5-triol

> <PUBCHEM_IUPAC_INCHI>
InChI=1S/C18H32O16/c19-1-4-8(23)11(26)14(16(29)30-4)33-18-15(12(27)9(24)6(3-21)32-18)34-17-13(28)10(25)7(22)5(2-20)31-17/h4-29H,1-3H2/t4-,5-,6-,7-,8-,9-,10+,11+,12+,13-,14-,15-,16-,17-,18-/m1/s1

> <PUBCHEM_IUPAC_INCHIKEY>
UQBIAGWOJDEOMN-CFCQXFMMSA-N

> <PUBCHEM_XLOGP3_AA>
-5.8

> <PUBCHEM_EXACT_MASS>
504.16903493

> <PUBCHEM_MOLECULAR_FORMULA>
C18H32O16

> <PUBCHEM_MOLECULAR_WEIGHT>
504.4

> <PUBCHEM_OPENEYE_CAN_SMILES>
C(C1C(C(C(C(O1)O)OC2C(C(C(C(O2)CO)O)O)OC3C(C(C(C(O3)CO)O)O)O)O)O)O

> <PUBCHEM_OPENEYE_ISO_SMILES>
C([C@@H]1[C@H]([C@@H]([C@H]([C@@H](O1)O)O[C@@H]2[C@@H]([C@H]([C@@H]([C@H](O2)CO)O)O)O[C@@H]3[C@@H]([C@H]([C@@H]([C@H](O3)CO)O)O)O)O)O)O

> <PUBCHEM_CACTVS_TPSA>
269

> <PUBCHEM_MONOISOTOPIC_WEIGHT>
504.16903493

> <PUBCHEM_TOTAL_CHARGE>
0

> <PUBCHEM_HEAVY_ATOM_COUNT>
34

> <PUBCHEM_ATOM_DEF_STEREO_COUNT>
15

> <PUBCHEM_ATOM_UDEF_STEREO_COUNT>
0

> <PUBCHEM_BOND_DEF_STEREO_COUNT>
0

> <PUBCHEM_BOND_UDEF_STEREO_COUNT>
0

> <PUBCHEM_ISOTOPIC_ATOM_COUNT>
0

> <PUBCHEM_COMPONENT_COUNT>
1

> <PUBCHEM_CACTVS_TAUTO_COUNT>
-1

> <PUBCHEM_COORDINATE_TYPE>
1
5
255

> <PUBCHEM_BONDANNOTATIONS>
17  1  6
23  1  6
26  10  5
27  11  5
28  12  6
29  13  6
18  2  6
21  2  5
22  32  5
30  33  5
31  34  6
19  6  5
20  7  6
24  8  6
25  9  6

$$$$
