 
  -OEChem-10192104242D

 41 43  0     1  0  0  0  0  0999 V2000
   11.5268    0.1940    0.0000 O   0  0  0  0  0  0  0  0  0  0  0  0
   10.2942    2.0600    0.0000 O   0  0  0  0  0  0  0  0  0  0  0  0
    9.7942   -1.8060    0.0000 O   0  0  0  0  0  0  0  0  0  0  0  0
    8.0622   -0.8060    0.0000 O   0  0  0  0  0  0  0  0  0  0  0  0
    8.2942    2.0600    0.0000 O   0  0  0  0  0  0  0  0  0  0  0  0
    9.7942    2.9260    0.0000 O   0  0  0  0  0  0  0  0  0  0  0  0
    7.1962    0.6940    0.0000 O   0  0  0  0  0  0  0  0  0  0  0  0
    2.0000   -0.3060    0.0000 O   0  0  0  0  0  0  0  0  0  0  0  0
    2.0000   -2.3060    0.0000 O   0  0  0  0  0  0  0  0  0  0  0  0
   10.6603    0.6940    0.0000 C   0  0  3  0  0  0  0  0  0  0  0  0
   10.6603   -0.3060    0.0000 C   0  0  3  0  0  0  0  0  0  0  0  0
    9.7942    1.1940    0.0000 C   0  0  3  0  0  0  0  0  0  0  0  0
    9.7942   -0.8060    0.0000 C   0  0  3  0  0  0  0  0  0  0  0  0
    8.9282    0.6940    0.0000 C   0  0  0  0  0  0  0  0  0  0  0  0
    8.9282   -0.3060    0.0000 C   0  0  3  0  0  0  0  0  0  0  0  0
    9.2942    2.0600    0.0000 C   0  0  0  0  0  0  0  0  0  0  0  0
    7.1962   -0.3060    0.0000 C   0  0  0  0  0  0  0  0  0  0  0  0
    6.3301   -0.8060    0.0000 C   0  0  0  0  0  0  0  0  0  0  0  0
    5.4641   -0.3060    0.0000 C   0  0  0  0  0  0  0  0  0  0  0  0
    4.5981   -0.8060    0.0000 C   0  0  0  0  0  0  0  0  0  0  0  0
    3.7320   -0.3060    0.0000 C   0  0  0  0  0  0  0  0  0  0  0  0
    4.5981   -1.8060    0.0000 C   0  0  0  0  0  0  0  0  0  0  0  0
    2.8660   -0.8060    0.0000 C   0  0  0  0  0  0  0  0  0  0  0  0
    3.7320   -2.3060    0.0000 C   0  0  0  0  0  0  0  0  0  0  0  0
    2.8660   -1.8060    0.0000 C   0  0  0  0  0  0  0  0  0  0  0  0
   10.9702    1.2310    0.0000 H   0  0  0  0  0  0  0  0  0  0  0  0
   10.9702   -0.8430    0.0000 H   0  0  0  0  0  0  0  0  0  0  0  0
    9.2573   -1.1160    0.0000 H   0  0  0  0  0  0  0  0  0  0  0  0
    8.7162    1.2766    0.0000 H   0  0  0  0  0  0  0  0  0  0  0  0
    8.3176    0.5863    0.0000 H   0  0  0  0  0  0  0  0  0  0  0  0
    8.3913    0.0040    0.0000 H   0  0  0  0  0  0  0  0  0  0  0  0
   10.9142    2.0600    0.0000 H   0  0  0  0  0  0  0  0  0  0  0  0
   10.3312   -2.1160    0.0000 H   0  0  0  0  0  0  0  0  0  0  0  0
    7.9842    2.5969    0.0000 H   0  0  0  0  0  0  0  0  0  0  0  0
    6.3301   -1.4260    0.0000 H   0  0  0  0  0  0  0  0  0  0  0  0
    5.4641    0.3140    0.0000 H   0  0  0  0  0  0  0  0  0  0  0  0
    3.7320    0.3140    0.0000 H   0  0  0  0  0  0  0  0  0  0  0  0
    5.1350   -2.1160    0.0000 H   0  0  0  0  0  0  0  0  0  0  0  0
    3.7320   -2.9260    0.0000 H   0  0  0  0  0  0  0  0  0  0  0  0
    2.0000    0.3140    0.0000 H   0  0  0  0  0  0  0  0  0  0  0  0
    2.0000   -2.9260    0.0000 H   0  0  0  0  0  0  0  0  0  0  0  0
  1 10  1  0  0  0  0
  1 11  1  0  0  0  0
  2 12  1  0  0  0  0
  2 32  1  0  0  0  0
  3 13  1  0  0  0  0
  3 33  1  0  0  0  0
  4 15  1  0  0  0  0
  4 17  1  0  0  0  0
  5 16  1  0  0  0  0
  5 34  1  0  0  0  0
  6 16  2  0  0  0  0
  7 17  2  0  0  0  0
  8 23  1  0  0  0  0
  8 40  1  0  0  0  0
  9 25  1  0  0  0  0
  9 41  1  0  0  0  0
 10 11  1  0  0  0  0
 10 12  1  0  0  0  0
 10 26  1  0  0  0  0
 11 13  1  0  0  0  0
 11 27  1  0  0  0  0
 12 14  1  0  0  0  0
 12 16  1  0  0  0  0
 13 15  1  0  0  0  0
 13 28  1  0  0  0  0
 14 15  1  0  0  0  0
 14 29  1  0  0  0  0
 14 30  1  0  0  0  0
 15 31  1  0  0  0  0
 17 18  1  0  0  0  0
 18 19  2  3  0  0  0
 18 35  1  0  0  0  0
 19 20  1  0  0  0  0
 19 36  1  0  0  0  0
 20 21  2  0  0  0  0
 20 22  1  0  0  0  0
 21 23  1  0  0  0  0
 21 37  1  0  0  0  0
 22 24  2  0  0  0  0
 22 38  1  0  0  0  0
 23 25  2  0  0  0  0
 24 25  1  0  0  0  0
 24 39  1  0  0  0  0
M  END
> <PUBCHEM_COMPOUND_CID>
123386550

> <PUBCHEM_COMPOUND_CANONICALIZED>
1

> <PUBCHEM_CACTVS_COMPLEXITY>
576

> <PUBCHEM_CACTVS_HBOND_ACCEPTOR>
9

> <PUBCHEM_CACTVS_HBOND_DONOR>
5

> <PUBCHEM_CACTVS_ROTATABLE_BOND>
5

> <PUBCHEM_CACTVS_SUBSKEYS>
AAADceB4PAAAAAAAAAAAAAAAEgAAAAAAAAAwYAAABIAAAAABAAAAGgAACAAADFSgmAIwDoAABgCIAiDSCAICAAAgIAAIiAFGiMgJNjaCMRKCcAEl4BELuYfK7DzOIAABAAAAQABCAAIQABCAAAAAAAAAAA==

> <PUBCHEM_IUPAC_OPENEYE_NAME>
4-[3-(3,4-dihydroxyphenyl)prop-2-enoyloxy]-2,5-dihydroxy-7-oxabicyclo[4.1.0]heptane-2-carboxylic acid

> <PUBCHEM_IUPAC_CAS_NAME>
4-[3-(3,4-dihydroxyphenyl)-1-oxoprop-2-enoxy]-2,5-dihydroxy-7-oxabicyclo[4.1.0]heptane-2-carboxylic acid

> <PUBCHEM_IUPAC_NAME_MARKUP>
4-[3-(3,4-dihydroxyphenyl)prop-2-enoyloxy]-2,5-dihydroxy-7-oxabicyclo[4.1.0]heptane-2-carboxylic acid

> <PUBCHEM_IUPAC_NAME>
4-[3-(3,4-dihydroxyphenyl)prop-2-enoyloxy]-2,5-dihydroxy-7-oxabicyclo[4.1.0]heptane-2-carboxylic acid

> <PUBCHEM_IUPAC_SYSTEMATIC_NAME>
4-[3-[3,4-bis(oxidanyl)phenyl]prop-2-enoyloxy]-2,5-bis(oxidanyl)-7-oxabicyclo[4.1.0]heptane-2-carboxylic acid

> <PUBCHEM_IUPAC_TRADITIONAL_NAME>
4-caffeoyloxy-2,5-dihydroxy-7-oxabicyclo[4.1.0]heptane-2-carboxylic acid

> <PUBCHEM_IUPAC_INCHI>
InChI=1S/C16H16O9/c17-8-3-1-7(5-9(8)18)2-4-11(19)24-10-6-16(23,15(21)22)14-13(25-14)12(10)20/h1-5,10,12-14,17-18,20,23H,6H2,(H,21,22)

> <PUBCHEM_IUPAC_INCHIKEY>
ZFIXUTYWVBHZDS-UHFFFAOYSA-N

> <PUBCHEM_XLOGP3_AA>
-0.4

> <PUBCHEM_EXACT_MASS>
352.07943208

> <PUBCHEM_MOLECULAR_FORMULA>
C16H16O9

> <PUBCHEM_MOLECULAR_WEIGHT>
352.29

> <PUBCHEM_OPENEYE_CAN_SMILES>
C1C(C(C2C(C1(C(=O)O)O)O2)O)OC(=O)C=CC3=CC(=C(C=C3)O)O

> <PUBCHEM_OPENEYE_ISO_SMILES>
C1C(C(C2C(C1(C(=O)O)O)O2)O)OC(=O)C=CC3=CC(=C(C=C3)O)O

> <PUBCHEM_CACTVS_TPSA>
157

> <PUBCHEM_MONOISOTOPIC_WEIGHT>
352.07943208

> <PUBCHEM_TOTAL_CHARGE>
0

> <PUBCHEM_HEAVY_ATOM_COUNT>
25

> <PUBCHEM_ATOM_DEF_STEREO_COUNT>
0

> <PUBCHEM_ATOM_UDEF_STEREO_COUNT>
5

> <PUBCHEM_BOND_DEF_STEREO_COUNT>
0

> <PUBCHEM_BOND_UDEF_STEREO_COUNT>
1

> <PUBCHEM_ISOTOPIC_ATOM_COUNT>
0

> <PUBCHEM_COMPONENT_COUNT>
1

> <PUBCHEM_CACTVS_TAUTO_COUNT>
-1

> <PUBCHEM_COORDINATE_TYPE>
1
5
255

> <PUBCHEM_BONDANNOTATIONS>
10  1  3
11  1  3
18  19  1
12  2  3
20  21  8
20  22  8
21  23  8
22  24  8
23  25  8
24  25  8
13  3  3
15  4  3

$$$$
