 
  -OEChem-10192103372D

 45 46  0     1  0  0  0  0  0999 V2000
    6.7845    0.3939    0.0000 O   0  0  0  0  0  0  0  0  0  0  0  0
    5.5597    1.6186    0.0000 O   0  0  0  0  0  0  0  0  0  0  0  0
    7.2328    2.0669    0.0000 O   0  0  0  0  0  0  0  0  0  0  0  0
    5.5597   -2.7274    0.0000 O   0  0  0  0  0  0  0  0  0  0  0  0
    2.4384    0.3939    0.0000 O   0  0  0  0  0  0  0  0  0  0  0  0
    9.4058   -1.6969    0.0000 O   0  0  0  0  0  0  0  0  0  0  0  0
   10.5483    2.5669    0.0000 O   0  0  0  0  0  0  0  0  0  0  0  0
    2.4384   -1.5027    0.0000 O   0  0  0  0  0  0  0  0  0  0  0  0
   11.4966    0.9245    0.0000 O   0  0  0  0  0  0  0  0  0  0  0  0
    6.7845   -1.5027    0.0000 O   0  0  0  0  0  0  0  0  0  0  0  0
    3.6632    1.6186    0.0000 O   0  0  0  0  0  0  0  0  0  0  0  0
    7.7328   -1.2486    0.0000 O   0  0  0  0  0  0  0  0  0  0  0  0
    8.8752    3.0152    0.0000 O   0  0  0  0  0  0  0  0  0  0  0  0
    3.6632   -2.7274    0.0000 O   0  0  0  0  0  0  0  0  0  0  0  0
   11.0483   -0.7486    0.0000 O   0  0  0  0  0  0  0  0  0  0  0  0
    5.1114   -0.0544    0.0000 C   0  0  0  0  0  0  0  0  0  0  0  0
    8.4575    0.8422    0.0000 C   0  0  0  0  0  0  0  0  0  0  0  0
    5.1114   -1.0544    0.0000 C   0  0  3  0  0  0  0  0  0  0  0  0
    4.1114   -0.0544    0.0000 C   0  0  3  0  0  0  0  0  0  0  0  0
    8.9575   -0.0238    0.0000 C   0  0  3  0  0  0  0  0  0  0  0  0
    9.3235    1.3422    0.0000 C   0  0  3  0  0  0  0  0  0  0  0  0
    4.1114   -1.0544    0.0000 C   0  0  0  0  0  0  0  0  0  0  0  0
    9.8235    0.4762    0.0000 C   0  0  0  0  0  0  0  0  0  0  0  0
    5.8186    0.6527    0.0000 C   0  0  0  0  0  0  0  0  0  0  0  0
    7.4916    1.1010    0.0000 C   0  0  0  0  0  0  0  0  0  0  0  0
    5.8186   -1.7615    0.0000 C   0  0  0  0  0  0  0  0  0  0  0  0
    3.4043    0.6527    0.0000 C   0  0  0  0  0  0  0  0  0  0  0  0
    8.6987   -0.9898    0.0000 C   0  0  0  0  0  0  0  0  0  0  0  0
    9.5824    2.3081    0.0000 C   0  0  0  0  0  0  0  0  0  0  0  0
    3.4043   -1.7615    0.0000 C   0  0  0  0  0  0  0  0  0  0  0  0
   10.7895    0.2174    0.0000 C   0  0  0  0  0  0  0  0  0  0  0  0
    4.8742    0.5184    0.0000 H   0  0  0  0  0  0  0  0  0  0  0  0
    8.3766    1.4569    0.0000 H   0  0  0  0  0  0  0  0  0  0  0  0
    4.8742   -1.6272    0.0000 H   0  0  0  0  0  0  0  0  0  0  0  0
    4.3487    0.5184    0.0000 H   0  0  0  0  0  0  0  0  0  0  0  0
    9.4494   -0.4013    0.0000 H   0  0  0  0  0  0  0  0  0  0  0  0
    8.8316    1.7196    0.0000 H   0  0  0  0  0  0  0  0  0  0  0  0
    4.3487   -1.6272    0.0000 H   0  0  0  0  0  0  0  0  0  0  0  0
   10.2010    0.9681    0.0000 H   0  0  0  0  0  0  0  0  0  0  0  0
    5.9981   -3.1658    0.0000 H   0  0  0  0  0  0  0  0  0  0  0  0
    2.0000    0.8323    0.0000 H   0  0  0  0  0  0  0  0  0  0  0  0
    9.2453   -2.2957    0.0000 H   0  0  0  0  0  0  0  0  0  0  0  0
   10.7087    3.1658    0.0000 H   0  0  0  0  0  0  0  0  0  0  0  0
    2.0000   -1.9411    0.0000 H   0  0  0  0  0  0  0  0  0  0  0  0
   12.0954    0.7640    0.0000 H   0  0  0  0  0  0  0  0  0  0  0  0
  1 24  1  0  0  0  0
  1 25  1  0  0  0  0
  2 24  2  0  0  0  0
  3 25  2  0  0  0  0
  4 26  1  0  0  0  0
  4 40  1  0  0  0  0
  5 27  1  0  0  0  0
  5 41  1  0  0  0  0
  6 28  1  0  0  0  0
  6 42  1  0  0  0  0
  7 29  1  0  0  0  0
  7 43  1  0  0  0  0
  8 30  1  0  0  0  0
  8 44  1  0  0  0  0
  9 31  1  0  0  0  0
  9 45  1  0  0  0  0
 10 26  2  0  0  0  0
 11 27  2  0  0  0  0
 12 28  2  0  0  0  0
 13 29  2  0  0  0  0
 14 30  2  0  0  0  0
 15 31  2  0  0  0  0
 16 18  1  0  0  0  0
 16 19  1  0  0  0  0
 16 24  1  0  0  0  0
 16 32  1  0  0  0  0
 17 20  1  0  0  0  0
 17 21  1  0  0  0  0
 17 25  1  0  0  0  0
 17 33  1  0  0  0  0
 18 22  1  0  0  0  0
 18 26  1  0  0  0  0
 18 34  1  0  0  0  0
 19 22  1  0  0  0  0
 19 27  1  0  0  0  0
 19 35  1  0  0  0  0
 20 23  1  0  0  0  0
 20 28  1  0  0  0  0
 20 36  1  0  0  0  0
 21 23  1  0  0  0  0
 21 29  1  0  0  0  0
 21 37  1  0  0  0  0
 22 30  1  0  0  0  0
 22 38  1  0  0  0  0
 23 31  1  0  0  0  0
 23 39  1  0  0  0  0
M  END
> <PUBCHEM_COMPOUND_CID>
87654263

> <PUBCHEM_COMPOUND_CANONICALIZED>
1

> <PUBCHEM_CACTVS_COMPLEXITY>
787

> <PUBCHEM_CACTVS_HBOND_ACCEPTOR>
15

> <PUBCHEM_CACTVS_HBOND_DONOR>
6

> <PUBCHEM_CACTVS_ROTATABLE_BOND>
10

> <PUBCHEM_CACTVS_SUBSKEYS>
AAADccB4PAAAAAAAAAAAAAAAAABgwAAAAAAAAAAAAAAAAAAAAAAAGgAACAAADQCAgAAACAAABgAIAACQCAAAAAAAAAAAAAEAAAAAABIAAAACQAAEAAAAAAHLbggOgAAAAAAAAAAAAAAAAAAAAAAAAAAAAA==

> <PUBCHEM_IUPAC_OPENEYE_NAME>
4-(2,3,4-tricarboxycyclobutanecarbonyl)oxycarbonylcyclobutane-1,2,3-tricarboxylic acid

> <PUBCHEM_IUPAC_CAS_NAME>
4-[oxo-[oxo-(2,3,4-tricarboxycyclobutyl)methoxy]methyl]cyclobutane-1,2,3-tricarboxylic acid

> <PUBCHEM_IUPAC_NAME_MARKUP>
4-(2,3,4-tricarboxycyclobutanecarbonyl)oxycarbonylcyclobutane-1,2,3-tricarboxylic acid

> <PUBCHEM_IUPAC_NAME>
4-(2,3,4-tricarboxycyclobutanecarbonyl)oxycarbonylcyclobutane-1,2,3-tricarboxylic acid

> <PUBCHEM_IUPAC_SYSTEMATIC_NAME>
4-(2,3,4-tricarboxycyclobutyl)carbonyloxycarbonylcyclobutane-1,2,3-tricarboxylic acid

> <PUBCHEM_IUPAC_TRADITIONAL_NAME>
4-(2,3,4-tricarboxycyclobutanecarbonyl)oxycarbonylcyclobutane-1,2,3-tricarboxylic acid

> <PUBCHEM_IUPAC_INCHI>
InChI=1S/C16H14O15/c17-9(18)1-3(11(21)22)7(4(1)12(23)24)15(29)31-16(30)8-5(13(25)26)2(10(19)20)6(8)14(27)28/h1-8H,(H,17,18)(H,19,20)(H,21,22)(H,23,24)(H,25,26)(H,27,28)

> <PUBCHEM_IUPAC_INCHIKEY>
KKULXARFXAAILO-UHFFFAOYSA-N

> <PUBCHEM_XLOGP3_AA>
-3.4

> <PUBCHEM_EXACT_MASS>
446.03326974

> <PUBCHEM_MOLECULAR_FORMULA>
C16H14O15

> <PUBCHEM_MOLECULAR_WEIGHT>
446.27

> <PUBCHEM_OPENEYE_CAN_SMILES>
C1(C(C(C1C(=O)O)C(=O)OC(=O)C2C(C(C2C(=O)O)C(=O)O)C(=O)O)C(=O)O)C(=O)O

> <PUBCHEM_OPENEYE_ISO_SMILES>
C1(C(C(C1C(=O)O)C(=O)OC(=O)C2C(C(C2C(=O)O)C(=O)O)C(=O)O)C(=O)O)C(=O)O

> <PUBCHEM_CACTVS_TPSA>
267

> <PUBCHEM_MONOISOTOPIC_WEIGHT>
446.03326974

> <PUBCHEM_TOTAL_CHARGE>
0

> <PUBCHEM_HEAVY_ATOM_COUNT>
31

> <PUBCHEM_ATOM_DEF_STEREO_COUNT>
0

> <PUBCHEM_ATOM_UDEF_STEREO_COUNT>
4

> <PUBCHEM_BOND_DEF_STEREO_COUNT>
0

> <PUBCHEM_BOND_UDEF_STEREO_COUNT>
0

> <PUBCHEM_ISOTOPIC_ATOM_COUNT>
0

> <PUBCHEM_COMPONENT_COUNT>
1

> <PUBCHEM_CACTVS_TAUTO_COUNT>
-1

> <PUBCHEM_COORDINATE_TYPE>
1
5
255

> <PUBCHEM_BONDANNOTATIONS>
18  26  3
19  27  3
20  28  3
21  29  3

$$$$
