 
  -OEChem-10192104342D

 60 59  0     0  0  0  0  0  0999 V2000
    6.0010   -6.4467    0.0000 O   0  0  0  0  0  0  0  0  0  0  0  0
    2.5369   -6.4467    0.0000 O   0  0  0  0  0  0  0  0  0  0  0  0
    5.1350   -4.9467    0.0000 O   0  0  0  0  0  0  0  0  0  0  0  0
    3.4030   -7.9467    0.0000 O   0  0  0  0  0  0  0  0  0  0  0  0
    4.2690    7.4097    0.0000 O   0  0  0  0  0  0  0  0  0  0  0  0
    3.7690   -2.1165    0.0000 C   0  0  0  0  0  0  0  0  0  0  0  0
    4.2690   -2.9826    0.0000 C   0  0  0  0  0  0  0  0  0  0  0  0
    4.2690   -1.2505    0.0000 C   0  0  0  0  0  0  0  0  0  0  0  0
    3.7690   -3.8486    0.0000 C   0  0  0  0  0  0  0  0  0  0  0  0
    3.7690   -0.3845    0.0000 C   0  0  0  0  0  0  0  0  0  0  0  0
    4.2690   -4.7146    0.0000 C   0  0  0  0  0  0  0  0  0  0  0  0
    4.2690    0.4815    0.0000 C   0  0  0  0  0  0  0  0  0  0  0  0
    3.7690   -5.5806    0.0000 C   0  0  0  0  0  0  0  0  0  0  0  0
    3.7690    1.3476    0.0000 C   0  0  0  0  0  0  0  0  0  0  0  0
    4.2690   -6.4467    0.0000 C   0  0  0  0  0  0  0  0  0  0  0  0
    4.2690    2.2136    0.0000 C   0  0  0  0  0  0  0  0  0  0  0  0
    3.7690    3.0796    0.0000 C   0  0  0  0  0  0  0  0  0  0  0  0
    4.2690    3.9456    0.0000 C   0  0  0  0  0  0  0  0  0  0  0  0
    3.7690    4.8117    0.0000 C   0  0  0  0  0  0  0  0  0  0  0  0
    4.7690   -7.3127    0.0000 C   0  0  0  0  0  0  0  0  0  0  0  0
    5.1350   -5.9467    0.0000 C   0  0  0  0  0  0  0  0  0  0  0  0
    3.4030   -6.9467    0.0000 C   0  0  0  0  0  0  0  0  0  0  0  0
    4.2690    5.6777    0.0000 C   0  0  0  0  0  0  0  0  0  0  0  0
    3.7690    6.5437    0.0000 C   0  0  0  0  0  0  0  0  0  0  0  0
    3.2940   -1.7180    0.0000 H   0  0  0  0  0  0  0  0  0  0  0  0
    3.2940   -2.5151    0.0000 H   0  0  0  0  0  0  0  0  0  0  0  0
    4.7439   -3.3811    0.0000 H   0  0  0  0  0  0  0  0  0  0  0  0
    4.7439   -2.5840    0.0000 H   0  0  0  0  0  0  0  0  0  0  0  0
    4.7439   -1.6490    0.0000 H   0  0  0  0  0  0  0  0  0  0  0  0
    4.7439   -0.8520    0.0000 H   0  0  0  0  0  0  0  0  0  0  0  0
    3.2940   -3.4501    0.0000 H   0  0  0  0  0  0  0  0  0  0  0  0
    3.2940   -4.2471    0.0000 H   0  0  0  0  0  0  0  0  0  0  0  0
    3.2940    0.0140    0.0000 H   0  0  0  0  0  0  0  0  0  0  0  0
    3.2940   -0.7830    0.0000 H   0  0  0  0  0  0  0  0  0  0  0  0
    4.7439   -5.1132    0.0000 H   0  0  0  0  0  0  0  0  0  0  0  0
    4.7439   -4.3161    0.0000 H   0  0  0  0  0  0  0  0  0  0  0  0
    4.7439    0.0830    0.0000 H   0  0  0  0  0  0  0  0  0  0  0  0
    4.7439    0.8801    0.0000 H   0  0  0  0  0  0  0  0  0  0  0  0
    3.2940   -5.1821    0.0000 H   0  0  0  0  0  0  0  0  0  0  0  0
    3.2940   -5.9792    0.0000 H   0  0  0  0  0  0  0  0  0  0  0  0
    3.2940    1.7461    0.0000 H   0  0  0  0  0  0  0  0  0  0  0  0
    3.2940    0.9490    0.0000 H   0  0  0  0  0  0  0  0  0  0  0  0
    4.7439    1.8150    0.0000 H   0  0  0  0  0  0  0  0  0  0  0  0
    4.7439    2.6121    0.0000 H   0  0  0  0  0  0  0  0  0  0  0  0
    3.2940    3.4781    0.0000 H   0  0  0  0  0  0  0  0  0  0  0  0
    3.2940    2.6811    0.0000 H   0  0  0  0  0  0  0  0  0  0  0  0
    4.7439    3.5471    0.0000 H   0  0  0  0  0  0  0  0  0  0  0  0
    4.7439    4.3442    0.0000 H   0  0  0  0  0  0  0  0  0  0  0  0
    3.2940    5.2102    0.0000 H   0  0  0  0  0  0  0  0  0  0  0  0
    3.2940    4.4131    0.0000 H   0  0  0  0  0  0  0  0  0  0  0  0
    4.2320   -7.6227    0.0000 H   0  0  0  0  0  0  0  0  0  0  0  0
    5.0790   -7.8496    0.0000 H   0  0  0  0  0  0  0  0  0  0  0  0
    5.3059   -7.0027    0.0000 H   0  0  0  0  0  0  0  0  0  0  0  0
    4.7439    5.2792    0.0000 H   0  0  0  0  0  0  0  0  0  0  0  0
    4.7439    6.0762    0.0000 H   0  0  0  0  0  0  0  0  0  0  0  0
    3.2940    6.9422    0.0000 H   0  0  0  0  0  0  0  0  0  0  0  0
    3.2940    6.1452    0.0000 H   0  0  0  0  0  0  0  0  0  0  0  0
    6.5380   -6.1367    0.0000 H   0  0  0  0  0  0  0  0  0  0  0  0
    2.0000   -6.7567    0.0000 H   0  0  0  0  0  0  0  0  0  0  0  0
    3.9590    7.9467    0.0000 H   0  0  0  0  0  0  0  0  0  0  0  0
  1 21  1  0  0  0  0
  1 58  1  0  0  0  0
  2 22  1  0  0  0  0
  2 59  1  0  0  0  0
  3 21  2  0  0  0  0
  4 22  2  0  0  0  0
  5 24  1  0  0  0  0
  5 60  1  0  0  0  0
  6  7  1  0  0  0  0
  6  8  1  0  0  0  0
  6 25  1  0  0  0  0
  6 26  1  0  0  0  0
  7  9  1  0  0  0  0
  7 27  1  0  0  0  0
  7 28  1  0  0  0  0
  8 10  1  0  0  0  0
  8 29  1  0  0  0  0
  8 30  1  0  0  0  0
  9 11  1  0  0  0  0
  9 31  1  0  0  0  0
  9 32  1  0  0  0  0
 10 12  1  0  0  0  0
 10 33  1  0  0  0  0
 10 34  1  0  0  0  0
 11 13  1  0  0  0  0
 11 35  1  0  0  0  0
 11 36  1  0  0  0  0
 12 14  1  0  0  0  0
 12 37  1  0  0  0  0
 12 38  1  0  0  0  0
 13 15  1  0  0  0  0
 13 39  1  0  0  0  0
 13 40  1  0  0  0  0
 14 16  1  0  0  0  0
 14 41  1  0  0  0  0
 14 42  1  0  0  0  0
 15 20  1  0  0  0  0
 15 21  1  0  0  0  0
 15 22  1  0  0  0  0
 16 17  1  0  0  0  0
 16 43  1  0  0  0  0
 16 44  1  0  0  0  0
 17 18  1  0  0  0  0
 17 45  1  0  0  0  0
 17 46  1  0  0  0  0
 18 19  1  0  0  0  0
 18 47  1  0  0  0  0
 18 48  1  0  0  0  0
 19 23  1  0  0  0  0
 19 49  1  0  0  0  0
 19 50  1  0  0  0  0
 20 51  1  0  0  0  0
 20 52  1  0  0  0  0
 20 53  1  0  0  0  0
 23 24  1  0  0  0  0
 23 54  1  0  0  0  0
 23 55  1  0  0  0  0
 24 56  1  0  0  0  0
 24 57  1  0  0  0  0
M  END
> <PUBCHEM_COMPOUND_CID>
2858331

> <PUBCHEM_COMPOUND_CANONICALIZED>
1

> <PUBCHEM_CACTVS_COMPLEXITY>
327

> <PUBCHEM_CACTVS_HBOND_ACCEPTOR>
5

> <PUBCHEM_CACTVS_HBOND_DONOR>
3

> <PUBCHEM_CACTVS_ROTATABLE_BOND>
17

> <PUBCHEM_CACTVS_SUBSKEYS>
AAADcfB4OAAAAAAAAAAAAAAAAAAAAAAAAAAAAAAAAAAAAAAAAAAAGgAACAAADgCggAICCAAAAgAIAACQCAAAAAAAAAAAAAEAAAAAEBYIAAAAQAAFIAAAAAGIyOCNAAAAAAAAAAAAAAAAAAAAAAAAAAAAAA==

> <PUBCHEM_IUPAC_OPENEYE_NAME>
2-(15-hydroxypentadecyl)-2-methyl-propanedioic acid

> <PUBCHEM_IUPAC_CAS_NAME>
2-(15-hydroxypentadecyl)-2-methylpropanedioic acid

> <PUBCHEM_IUPAC_NAME_MARKUP>
2-(15-hydroxypentadecyl)-2-methylpropanedioic acid

> <PUBCHEM_IUPAC_NAME>
2-(15-hydroxypentadecyl)-2-methylpropanedioic acid

> <PUBCHEM_IUPAC_SYSTEMATIC_NAME>
2-methyl-2-(15-oxidanylpentadecyl)propanedioic acid

> <PUBCHEM_IUPAC_TRADITIONAL_NAME>
2-(15-hydroxypentadecyl)-2-methyl-malonic acid

> <PUBCHEM_IUPAC_INCHI>
InChI=1S/C19H36O5/c1-19(17(21)22,18(23)24)15-13-11-9-7-5-3-2-4-6-8-10-12-14-16-20/h20H,2-16H2,1H3,(H,21,22)(H,23,24)

> <PUBCHEM_IUPAC_INCHIKEY>
RCYAPYHSCPWJQF-UHFFFAOYSA-N

> <PUBCHEM_XLOGP3_AA>
6.2

> <PUBCHEM_EXACT_MASS>
344.25627424

> <PUBCHEM_MOLECULAR_FORMULA>
C19H36O5

> <PUBCHEM_MOLECULAR_WEIGHT>
344.5

> <PUBCHEM_OPENEYE_CAN_SMILES>
CC(CCCCCCCCCCCCCCCO)(C(=O)O)C(=O)O

> <PUBCHEM_OPENEYE_ISO_SMILES>
CC(CCCCCCCCCCCCCCCO)(C(=O)O)C(=O)O

> <PUBCHEM_CACTVS_TPSA>
94.8

> <PUBCHEM_MONOISOTOPIC_WEIGHT>
344.25627424

> <PUBCHEM_TOTAL_CHARGE>
0

> <PUBCHEM_HEAVY_ATOM_COUNT>
24

> <PUBCHEM_ATOM_DEF_STEREO_COUNT>
0

> <PUBCHEM_ATOM_UDEF_STEREO_COUNT>
0

> <PUBCHEM_BOND_DEF_STEREO_COUNT>
0

> <PUBCHEM_BOND_UDEF_STEREO_COUNT>
0

> <PUBCHEM_ISOTOPIC_ATOM_COUNT>
0

> <PUBCHEM_COMPONENT_COUNT>
1

> <PUBCHEM_CACTVS_TAUTO_COUNT>
-1

> <PUBCHEM_COORDINATE_TYPE>
1
5
255

$$$$
