 
  -OEChem-10192103332D

 32 31  0     0  0  0  0  0  0999 V2000
    9.4651    1.0600    0.0000 O   0  0  0  0  0  0  0  0  0  0  0  0
    2.5369    1.0600    0.0000 O   0  0  0  0  0  0  0  0  0  0  0  0
    4.2690   -1.9400    0.0000 O   0  0  0  0  0  0  0  0  0  0  0  0
    8.5991    2.5600    0.0000 O   0  0  0  0  0  0  0  0  0  0  0  0
    3.4030    2.5600    0.0000 O   0  0  0  0  0  0  0  0  0  0  0  0
    6.0010   -1.9400    0.0000 O   0  0  0  0  0  0  0  0  0  0  0  0
    6.0010    1.0600    0.0000 C   0  0  0  0  0  0  0  0  0  0  0  0
    6.8671    1.5600    0.0000 C   0  0  0  0  0  0  0  0  0  0  0  0
    5.1350    1.5600    0.0000 C   0  0  0  0  0  0  0  0  0  0  0  0
    6.0010    0.0600    0.0000 C   0  0  0  0  0  0  0  0  0  0  0  0
    7.7331    1.0600    0.0000 C   0  0  0  0  0  0  0  0  0  0  0  0
    4.2690    1.0600    0.0000 C   0  0  0  0  0  0  0  0  0  0  0  0
    5.1350   -0.4400    0.0000 C   0  0  0  0  0  0  0  0  0  0  0  0
    8.5991    1.5600    0.0000 C   0  0  0  0  0  0  0  0  0  0  0  0
    3.4030    1.5600    0.0000 C   0  0  0  0  0  0  0  0  0  0  0  0
    5.1350   -1.4400    0.0000 C   0  0  0  0  0  0  0  0  0  0  0  0
    6.5380    0.7500    0.0000 H   0  0  0  0  0  0  0  0  0  0  0  0
    7.2656    2.0349    0.0000 H   0  0  0  0  0  0  0  0  0  0  0  0
    6.4685    2.0349    0.0000 H   0  0  0  0  0  0  0  0  0  0  0  0
    5.5335    2.0349    0.0000 H   0  0  0  0  0  0  0  0  0  0  0  0
    4.7365    2.0349    0.0000 H   0  0  0  0  0  0  0  0  0  0  0  0
    6.2131   -0.5226    0.0000 H   0  0  0  0  0  0  0  0  0  0  0  0
    6.6116    0.1677    0.0000 H   0  0  0  0  0  0  0  0  0  0  0  0
    7.3346    0.5851    0.0000 H   0  0  0  0  0  0  0  0  0  0  0  0
    8.1316    0.5851    0.0000 H   0  0  0  0  0  0  0  0  0  0  0  0
    3.8705    0.5851    0.0000 H   0  0  0  0  0  0  0  0  0  0  0  0
    4.6675    0.5851    0.0000 H   0  0  0  0  0  0  0  0  0  0  0  0
    4.9230    0.1426    0.0000 H   0  0  0  0  0  0  0  0  0  0  0  0
    4.5244   -0.5477    0.0000 H   0  0  0  0  0  0  0  0  0  0  0  0
   10.0021    1.3700    0.0000 H   0  0  0  0  0  0  0  0  0  0  0  0
    2.0000    1.3700    0.0000 H   0  0  0  0  0  0  0  0  0  0  0  0
    4.2690   -2.5600    0.0000 H   0  0  0  0  0  0  0  0  0  0  0  0
  1 14  1  0  0  0  0
  1 30  1  0  0  0  0
  2 15  1  0  0  0  0
  2 31  1  0  0  0  0
  3 16  1  0  0  0  0
  3 32  1  0  0  0  0
  4 14  2  0  0  0  0
  5 15  2  0  0  0  0
  6 16  2  0  0  0  0
  7  8  1  0  0  0  0
  7  9  1  0  0  0  0
  7 10  1  0  0  0  0
  7 17  1  0  0  0  0
  8 11  1  0  0  0  0
  8 18  1  0  0  0  0
  8 19  1  0  0  0  0
  9 12  1  0  0  0  0
  9 20  1  0  0  0  0
  9 21  1  0  0  0  0
 10 13  1  0  0  0  0
 10 22  1  0  0  0  0
 10 23  1  0  0  0  0
 11 14  1  0  0  0  0
 11 24  1  0  0  0  0
 11 25  1  0  0  0  0
 12 15  1  0  0  0  0
 12 26  1  0  0  0  0
 12 27  1  0  0  0  0
 13 16  1  0  0  0  0
 13 28  1  0  0  0  0
 13 29  1  0  0  0  0
M  END
> <PUBCHEM_COMPOUND_CID>
17777264

> <PUBCHEM_COMPOUND_CANONICALIZED>
1

> <PUBCHEM_CACTVS_COMPLEXITY>
217

> <PUBCHEM_CACTVS_HBOND_ACCEPTOR>
6

> <PUBCHEM_CACTVS_HBOND_DONOR>
3

> <PUBCHEM_CACTVS_ROTATABLE_BOND>
9

> <PUBCHEM_CACTVS_SUBSKEYS>
AAADceBwOAAAAAAAAAAAAAAAAAAAAAAAAAAAAAAAAAAAAAAAAAAAGgAACAAADQCAgAAACAAAAgAIAACQCAAAAAAAAAAAAAEAAAAAABIAAAAAQAAEAAAAAAGIyCCOAAAAAAAAAAAAAAAAAAAAAAAAAAAAAA==

> <PUBCHEM_IUPAC_OPENEYE_NAME>
4-(2-carboxyethyl)heptanedioic acid

> <PUBCHEM_IUPAC_CAS_NAME>
4-(2-carboxyethyl)heptanedioic acid

> <PUBCHEM_IUPAC_NAME_MARKUP>
4-(2-carboxyethyl)heptanedioic acid

> <PUBCHEM_IUPAC_NAME>
4-(2-carboxyethyl)heptanedioic acid

> <PUBCHEM_IUPAC_SYSTEMATIC_NAME>
4-(3-hydroxy-3-oxopropyl)heptanedioic acid

> <PUBCHEM_IUPAC_TRADITIONAL_NAME>
4-(2-carboxyethyl)pimelic acid

> <PUBCHEM_IUPAC_INCHI>
InChI=1S/C10H16O6/c11-8(12)4-1-7(2-5-9(13)14)3-6-10(15)16/h7H,1-6H2,(H,11,12)(H,13,14)(H,15,16)

> <PUBCHEM_IUPAC_INCHIKEY>
LEJONDPNCGKOBF-UHFFFAOYSA-N

> <PUBCHEM_XLOGP3_AA>
0

> <PUBCHEM_EXACT_MASS>
232.09468823

> <PUBCHEM_MOLECULAR_FORMULA>
C10H16O6

> <PUBCHEM_MOLECULAR_WEIGHT>
232.23

> <PUBCHEM_OPENEYE_CAN_SMILES>
C(CC(=O)O)C(CCC(=O)O)CCC(=O)O

> <PUBCHEM_OPENEYE_ISO_SMILES>
C(CC(=O)O)C(CCC(=O)O)CCC(=O)O

> <PUBCHEM_CACTVS_TPSA>
112

> <PUBCHEM_MONOISOTOPIC_WEIGHT>
232.09468823

> <PUBCHEM_TOTAL_CHARGE>
0

> <PUBCHEM_HEAVY_ATOM_COUNT>
16

> <PUBCHEM_ATOM_DEF_STEREO_COUNT>
0

> <PUBCHEM_ATOM_UDEF_STEREO_COUNT>
0

> <PUBCHEM_BOND_DEF_STEREO_COUNT>
0

> <PUBCHEM_BOND_UDEF_STEREO_COUNT>
0

> <PUBCHEM_ISOTOPIC_ATOM_COUNT>
0

> <PUBCHEM_COMPONENT_COUNT>
1

> <PUBCHEM_CACTVS_TAUTO_COUNT>
-1

> <PUBCHEM_COORDINATE_TYPE>
1
5
255

$$$$
