 
  -OEChem-10192103532D

 49 50  0     1  0  0  0  0  0999 V2000
    5.1350   -0.3450    0.0000 O   0  0  0  0  0  0  0  0  0  0  0  0
    6.8671   -0.3450    0.0000 O   0  0  0  0  0  0  0  0  0  0  0  0
    6.8671    2.6550    0.0000 O   0  0  0  0  0  0  0  0  0  0  0  0
    5.1350   -3.3450    0.0000 O   0  0  0  0  0  0  0  0  0  0  0  0
    6.8671   -2.3450    0.0000 O   0  0  0  0  0  0  0  0  0  0  0  0
    3.4030   -2.3450    0.0000 O   0  0  0  0  0  0  0  0  0  0  0  0
    8.5991    2.6550    0.0000 O   0  0  0  0  0  0  0  0  0  0  0  0
    2.5369   -0.8450    0.0000 O   0  0  0  0  0  0  0  0  0  0  0  0
    5.1350   -2.3450    0.0000 C   0  0  2  0  0  0  0  0  0  0  0  0
    6.0010   -1.8450    0.0000 C   0  0  2  0  0  0  0  0  0  0  0  0
    4.2690   -1.8450    0.0000 C   0  0  1  0  0  0  0  0  0  0  0  0
    6.0010   -0.8450    0.0000 C   0  0  1  0  0  0  0  0  0  0  0  0
    4.2690   -0.8450    0.0000 C   0  0  1  0  0  0  0  0  0  0  0  0
    6.0010    1.1550    0.0000 C   0  0  2  0  0  0  0  0  0  0  0  0
    6.0010    2.1550    0.0000 C   0  0  3  0  0  0  0  0  0  0  0  0
    6.8671    0.6550    0.0000 C   0  0  0  0  0  0  0  0  0  0  0  0
    7.7331    1.1550    0.0000 C   0  0  0  0  0  0  0  0  0  0  0  0
    5.1350    2.6550    0.0000 C   0  0  0  0  0  0  0  0  0  0  0  0
    7.7331    2.1550    0.0000 C   0  0  3  0  0  0  0  0  0  0  0  0
    3.4030   -0.3450    0.0000 C   0  0  0  0  0  0  0  0  0  0  0  0
    5.1350    0.6550    0.0000 C   0  0  0  0  0  0  0  0  0  0  0  0
    8.5991    0.6550    0.0000 C   0  0  0  0  0  0  0  0  0  0  0  0
    5.1350    3.6550    0.0000 C   0  0  0  0  0  0  0  0  0  0  0  0
    4.5981   -2.6550    0.0000 H   0  0  0  0  0  0  0  0  0  0  0  0
    6.0010   -2.4650    0.0000 H   0  0  0  0  0  0  0  0  0  0  0  0
    4.2690   -2.4650    0.0000 H   0  0  0  0  0  0  0  0  0  0  0  0
    6.0010   -0.2250    0.0000 H   0  0  0  0  0  0  0  0  0  0  0  0
    4.2690   -0.2250    0.0000 H   0  0  0  0  0  0  0  0  0  0  0  0
    6.0010    0.5350    0.0000 H   0  0  0  0  0  0  0  0  0  0  0  0
    6.0010    2.7750    0.0000 H   0  0  0  0  0  0  0  0  0  0  0  0
    4.5244    2.7627    0.0000 H   0  0  0  0  0  0  0  0  0  0  0  0
    4.9230    2.0724    0.0000 H   0  0  0  0  0  0  0  0  0  0  0  0
    8.2700    1.8450    0.0000 H   0  0  0  0  0  0  0  0  0  0  0  0
    3.8015    0.1299    0.0000 H   0  0  0  0  0  0  0  0  0  0  0  0
    3.0044    0.1299    0.0000 H   0  0  0  0  0  0  0  0  0  0  0  0
    4.8250    1.1919    0.0000 H   0  0  0  0  0  0  0  0  0  0  0  0
    4.5981    0.3450    0.0000 H   0  0  0  0  0  0  0  0  0  0  0  0
    5.4450    0.1181    0.0000 H   0  0  0  0  0  0  0  0  0  0  0  0
    4.5981   -3.6550    0.0000 H   0  0  0  0  0  0  0  0  0  0  0  0
    6.8671   -2.9650    0.0000 H   0  0  0  0  0  0  0  0  0  0  0  0
    3.4030   -2.9650    0.0000 H   0  0  0  0  0  0  0  0  0  0  0  0
    8.2891    0.1181    0.0000 H   0  0  0  0  0  0  0  0  0  0  0  0
    9.1360    0.3450    0.0000 H   0  0  0  0  0  0  0  0  0  0  0  0
    8.9091    1.1919    0.0000 H   0  0  0  0  0  0  0  0  0  0  0  0
    5.7550    3.6550    0.0000 H   0  0  0  0  0  0  0  0  0  0  0  0
    5.1350    4.2750    0.0000 H   0  0  0  0  0  0  0  0  0  0  0  0
    4.5150    3.6550    0.0000 H   0  0  0  0  0  0  0  0  0  0  0  0
    8.5991    3.2750    0.0000 H   0  0  0  0  0  0  0  0  0  0  0  0
    2.0000   -0.5350    0.0000 H   0  0  0  0  0  0  0  0  0  0  0  0
  1 12  1  0  0  0  0
  1 13  1  0  0  0  0
 12  2  1  1  0  0  0
  2 16  1  0  0  0  0
  3 15  1  0  0  0  0
  3 19  1  0  0  0  0
  9  4  1  1  0  0  0
  4 39  1  0  0  0  0
 10  5  1  6  0  0  0
  5 40  1  0  0  0  0
 11  6  1  6  0  0  0
  6 41  1  0  0  0  0
  7 19  1  0  0  0  0
  7 48  1  0  0  0  0
  8 20  1  0  0  0  0
  8 49  1  0  0  0  0
  9 10  1  0  0  0  0
  9 11  1  0  0  0  0
  9 24  1  0  0  0  0
 10 12  1  0  0  0  0
 10 25  1  0  0  0  0
 11 13  1  0  0  0  0
 11 26  1  0  0  0  0
 12 27  1  0  0  0  0
 13 20  1  1  0  0  0
 13 28  1  0  0  0  0
 14 15  1  0  0  0  0
 14 16  1  0  0  0  0
 14 21  1  6  0  0  0
 14 29  1  0  0  0  0
 15 18  1  0  0  0  0
 15 30  1  0  0  0  0
 16 17  2  0  0  0  0
 17 19  1  0  0  0  0
 17 22  1  0  0  0  0
 18 23  1  0  0  0  0
 18 31  1  0  0  0  0
 18 32  1  0  0  0  0
 19 33  1  0  0  0  0
 20 34  1  0  0  0  0
 20 35  1  0  0  0  0
 21 36  1  0  0  0  0
 21 37  1  0  0  0  0
 21 38  1  0  0  0  0
 22 42  1  0  0  0  0
 22 43  1  0  0  0  0
 22 44  1  0  0  0  0
 23 45  1  0  0  0  0
 23 46  1  0  0  0  0
 23 47  1  0  0  0  0
M  END
> <PUBCHEM_COMPOUND_CID>
11175011

> <PUBCHEM_COMPOUND_CANONICALIZED>
1

> <PUBCHEM_CACTVS_COMPLEXITY>
439

> <PUBCHEM_CACTVS_HBOND_ACCEPTOR>
8

> <PUBCHEM_CACTVS_HBOND_DONOR>
5

> <PUBCHEM_CACTVS_ROTATABLE_BOND>
4

> <PUBCHEM_CACTVS_SUBSKEYS>
AAADceBwPAAAAAAAAAAAAAAAAAAAAAAAAAAkQAAAAAAAAAAAAAAAGgAACAAADRSwgAMCCAAABgCAAgBAAAAACAAgIAAACAAAAAgRFAIAIAAiUAAFwAAPMAPAYAwMAAAAAAAAAAAAAAAAAAAAAAAAAAAAAA==

> <PUBCHEM_IUPAC_OPENEYE_NAME>
(2S,3R,4S,5S,6R)-2-[[(3R)-2-ethyl-6-hydroxy-3,5-dimethyl-3,6-dihydro-2H-pyran-4-yl]oxy]-6-(hydroxymethyl)tetrahydropyran-3,4,5-triol

> <PUBCHEM_IUPAC_CAS_NAME>
(2S,3R,4S,5S,6R)-2-[[(3R)-2-ethyl-6-hydroxy-3,5-dimethyl-3,6-dihydro-2H-pyran-4-yl]oxy]-6-(hydroxymethyl)oxane-3,4,5-triol

> <PUBCHEM_IUPAC_NAME_MARKUP>
(2<I>S</I>,3<I>R</I>,4<I>S</I>,5<I>S</I>,6<I>R</I>)-2-[[(3<I>R</I>)-2-ethyl-6-hydroxy-3,5-dimethyl-3,6-dihydro-2<I>H</I>-pyran-4-yl]oxy]-6-(hydroxymethyl)oxane-3,4,5-triol

> <PUBCHEM_IUPAC_NAME>
(2S,3R,4S,5S,6R)-2-[[(3R)-2-ethyl-6-hydroxy-3,5-dimethyl-3,6-dihydro-2H-pyran-4-yl]oxy]-6-(hydroxymethyl)oxane-3,4,5-triol

> <PUBCHEM_IUPAC_SYSTEMATIC_NAME>
(2S,3R,4S,5S,6R)-2-[[(3R)-2-ethyl-3,5-dimethyl-6-oxidanyl-3,6-dihydro-2H-pyran-4-yl]oxy]-6-(hydroxymethyl)oxane-3,4,5-triol

> <PUBCHEM_IUPAC_TRADITIONAL_NAME>
(2S,3R,4S,5S,6R)-2-[[(3R)-2-ethyl-6-hydroxy-3,5-dimethyl-3,6-dihydro-2H-pyran-4-yl]oxy]-6-methylol-tetrahydropyran-3,4,5-triol

> <PUBCHEM_IUPAC_INCHI>
InChI=1S/C15H26O8/c1-4-8-6(2)13(7(3)14(20)21-8)23-15-12(19)11(18)10(17)9(5-16)22-15/h6,8-12,14-20H,4-5H2,1-3H3/t6-,8?,9-,10-,11+,12-,14?,15+/m1/s1

> <PUBCHEM_IUPAC_INCHIKEY>
WCZDDVMDCKRQNQ-CPZKDHSDSA-N

> <PUBCHEM_XLOGP3_AA>
-1

> <PUBCHEM_EXACT_MASS>
334.16276778

> <PUBCHEM_MOLECULAR_FORMULA>
C15H26O8

> <PUBCHEM_MOLECULAR_WEIGHT>
334.36

> <PUBCHEM_OPENEYE_CAN_SMILES>
CCC1C(C(=C(C(O1)O)C)OC2C(C(C(C(O2)CO)O)O)O)C

> <PUBCHEM_OPENEYE_ISO_SMILES>
CCC1[C@H](C(=C(C(O1)O)C)O[C@H]2[C@@H]([C@H]([C@@H]([C@H](O2)CO)O)O)O)C

> <PUBCHEM_CACTVS_TPSA>
129

> <PUBCHEM_MONOISOTOPIC_WEIGHT>
334.16276778

> <PUBCHEM_TOTAL_CHARGE>
0

> <PUBCHEM_HEAVY_ATOM_COUNT>
23

> <PUBCHEM_ATOM_DEF_STEREO_COUNT>
6

> <PUBCHEM_ATOM_UDEF_STEREO_COUNT>
2

> <PUBCHEM_BOND_DEF_STEREO_COUNT>
0

> <PUBCHEM_BOND_UDEF_STEREO_COUNT>
0

> <PUBCHEM_ISOTOPIC_ATOM_COUNT>
0

> <PUBCHEM_COMPONENT_COUNT>
1

> <PUBCHEM_CACTVS_TAUTO_COUNT>
-1

> <PUBCHEM_COORDINATE_TYPE>
1
5
255

> <PUBCHEM_BONDANNOTATIONS>
13  20  5
14  21  6
15  18  3
12  2  5
9  4  5
10  5  6
11  6  6
19  7  3

$$$$
