 
  -OEChem-10192104392D

 61 64  0     1  0  0  0  0  0999 V2000
    4.6870    1.1569    0.0000 O   0  0  0  0  0  0  0  0  0  0  0  0
   13.3378   -2.0241    0.0000 O   0  0  0  0  0  0  0  0  0  0  0  0
    4.1111    3.6796    0.0000 O   0  0  0  0  0  0  0  0  0  0  0  0
   11.4410   -3.7842    0.0000 O   0  0  0  0  0  0  0  0  0  0  0  0
    2.6166    0.8820    0.0000 O   0  0  0  0  0  0  0  0  0  0  0  0
   14.6110   -3.6796    0.0000 O   0  0  0  0  0  0  0  0  0  0  0  0
    5.6005   -0.4363    0.0000 O   0  0  0  0  0  0  0  0  0  0  0  0
   14.2608   -0.4363    0.0000 O   0  0  0  0  0  0  0  0  0  0  0  0
    9.0646   -0.4363    0.0000 O   0  0  0  0  0  0  0  0  0  0  0  0
   12.5287    2.5637    0.0000 O   0  0  0  0  0  0  0  0  0  0  0  0
    6.4666    1.0637    0.0000 N   0  0  0  0  0  0  0  0  0  0  0  0
   12.5287   -0.4363    0.0000 N   0  0  0  0  0  0  0  0  0  0  0  0
    7.3326   -0.4363    0.0000 N   0  0  0  0  0  0  0  0  0  0  0  0
   13.3948    1.0637    0.0000 N   0  0  0  0  0  0  0  0  0  0  0  0
    4.5179    2.7661    0.0000 C   0  0  1  0  0  0  0  0  0  0  0  0
    5.6005    1.5637    0.0000 C   0  0  1  0  0  0  0  0  0  0  0  0
    5.4960    2.5582    0.0000 C   0  0  0  0  0  0  0  0  0  0  0  0
    4.0179    1.9001    0.0000 C   0  0  1  0  0  0  0  0  0  0  0  0
   12.0287   -2.9752    0.0000 C   0  0  1  0  0  0  0  0  0  0  0  0
   12.5287   -1.4363    0.0000 C   0  0  1  0  0  0  0  0  0  0  0  0
   11.7197   -2.0241    0.0000 C   0  0  0  0  0  0  0  0  0  0  0  0
   13.0287   -2.9752    0.0000 C   0  0  1  0  0  0  0  0  0  0  0  0
    3.0233    1.7956    0.0000 C   0  0  0  0  0  0  0  0  0  0  0  0
   13.6165   -3.7842    0.0000 C   0  0  0  0  0  0  0  0  0  0  0  0
    7.3326    1.5637    0.0000 C   0  0  0  0  0  0  0  0  0  0  0  0
   11.6627    0.0637    0.0000 C   0  0  0  0  0  0  0  0  0  0  0  0
    6.4666    0.0637    0.0000 C   0  0  0  0  0  0  0  0  0  0  0  0
   13.3948    0.0637    0.0000 C   0  0  0  0  0  0  0  0  0  0  0  0
    8.1986    1.0637    0.0000 C   0  0  0  0  0  0  0  0  0  0  0  0
   11.6627    1.0637    0.0000 C   0  0  0  0  0  0  0  0  0  0  0  0
    9.0646    1.5637    0.0000 C   0  0  0  0  0  0  0  0  0  0  0  0
    8.1986    0.0637    0.0000 C   0  0  0  0  0  0  0  0  0  0  0  0
   12.5287    1.5637    0.0000 C   0  0  0  0  0  0  0  0  0  0  0  0
   10.7967    1.5637    0.0000 C   0  0  0  0  0  0  0  0  0  0  0  0
    9.9307    1.0637    0.0000 C   0  0  0  0  0  0  0  0  0  0  0  0
    4.9080    3.2479    0.0000 H   0  0  0  0  0  0  0  0  0  0  0  0
    5.5681    0.9445    0.0000 H   0  0  0  0  0  0  0  0  0  0  0  0
    6.1160    2.5582    0.0000 H   0  0  0  0  0  0  0  0  0  0  0  0
    5.5608    3.1748    0.0000 H   0  0  0  0  0  0  0  0  0  0  0  0
    3.7957    1.3213    0.0000 H   0  0  0  0  0  0  0  0  0  0  0  0
   12.3102   -3.5276    0.0000 H   0  0  0  0  0  0  0  0  0  0  0  0
   13.0812   -1.1548    0.0000 H   0  0  0  0  0  0  0  0  0  0  0  0
   11.4097   -1.4872    0.0000 H   0  0  0  0  0  0  0  0  0  0  0  0
   11.1533   -2.2763    0.0000 H   0  0  0  0  0  0  0  0  0  0  0  0
   13.6411   -2.8782    0.0000 H   0  0  0  0  0  0  0  0  0  0  0  0
    3.0666    2.4140    0.0000 H   0  0  0  0  0  0  0  0  0  0  0  0
    2.4218    1.9456    0.0000 H   0  0  0  0  0  0  0  0  0  0  0  0
   13.0593   -4.0560    0.0000 H   0  0  0  0  0  0  0  0  0  0  0  0
   13.7874   -4.3802    0.0000 H   0  0  0  0  0  0  0  0  0  0  0  0
    7.3326    2.1837    0.0000 H   0  0  0  0  0  0  0  0  0  0  0  0
    4.4756    4.1812    0.0000 H   0  0  0  0  0  0  0  0  0  0  0  0
   10.8244   -3.7194    0.0000 H   0  0  0  0  0  0  0  0  0  0  0  0
   11.1258   -0.2463    0.0000 H   0  0  0  0  0  0  0  0  0  0  0  0
    9.4632    2.0386    0.0000 H   0  0  0  0  0  0  0  0  0  0  0  0
    8.6661    2.0386    0.0000 H   0  0  0  0  0  0  0  0  0  0  0  0
    7.3326   -1.0563    0.0000 H   0  0  0  0  0  0  0  0  0  0  0  0
   13.9317    1.3737    0.0000 H   0  0  0  0  0  0  0  0  0  0  0  0
    2.0000    0.8172    0.0000 H   0  0  0  0  0  0  0  0  0  0  0  0
   14.9755   -4.1812    0.0000 H   0  0  0  0  0  0  0  0  0  0  0  0
   10.7967    2.1837    0.0000 H   0  0  0  0  0  0  0  0  0  0  0  0
    9.9307    0.4437    0.0000 H   0  0  0  0  0  0  0  0  0  0  0  0
  1 16  1  0  0  0  0
  1 18  1  0  0  0  0
  2 20  1  0  0  0  0
  2 22  1  0  0  0  0
 15  3  1  1  0  0  0
  3 51  1  0  0  0  0
 19  4  1  1  0  0  0
  4 52  1  0  0  0  0
  5 23  1  0  0  0  0
  5 58  1  0  0  0  0
  6 24  1  0  0  0  0
  6 59  1  0  0  0  0
  7 27  2  0  0  0  0
  8 28  2  0  0  0  0
  9 32  2  0  0  0  0
 10 33  2  0  0  0  0
 16 11  1  6  0  0  0
 11 25  1  0  0  0  0
 11 27  1  0  0  0  0
 20 12  1  6  0  0  0
 12 26  1  0  0  0  0
 12 28  1  0  0  0  0
 13 27  1  0  0  0  0
 13 32  1  0  0  0  0
 13 56  1  0  0  0  0
 14 28  1  0  0  0  0
 14 33  1  0  0  0  0
 14 57  1  0  0  0  0
 15 17  1  0  0  0  0
 15 18  1  0  0  0  0
 15 36  1  0  0  0  0
 16 17  1  0  0  0  0
 16 37  1  0  0  0  0
 17 38  1  0  0  0  0
 17 39  1  0  0  0  0
 18 23  1  6  0  0  0
 18 40  1  0  0  0  0
 19 21  1  0  0  0  0
 19 22  1  0  0  0  0
 19 41  1  0  0  0  0
 20 21  1  0  0  0  0
 20 42  1  0  0  0  0
 21 43  1  0  0  0  0
 21 44  1  0  0  0  0
 22 24  1  6  0  0  0
 22 45  1  0  0  0  0
 23 46  1  0  0  0  0
 23 47  1  0  0  0  0
 24 48  1  0  0  0  0
 24 49  1  0  0  0  0
 25 29  2  0  0  0  0
 25 50  1  0  0  0  0
 26 30  2  0  0  0  0
 26 53  1  0  0  0  0
 29 31  1  0  0  0  0
 29 32  1  0  0  0  0
 30 33  1  0  0  0  0
 30 34  1  0  0  0  0
 31 35  1  0  0  0  0
 31 54  1  0  0  0  0
 31 55  1  0  0  0  0
 34 35  2  0  0  0  0
 34 60  1  0  0  0  0
 35 61  1  0  0  0  0
M  END
> <PUBCHEM_COMPOUND_CID>
21634259

> <PUBCHEM_COMPOUND_CANONICALIZED>
1

> <PUBCHEM_CACTVS_COMPLEXITY>
995

> <PUBCHEM_CACTVS_HBOND_ACCEPTOR>
10

> <PUBCHEM_CACTVS_HBOND_DONOR>
6

> <PUBCHEM_CACTVS_ROTATABLE_BOND>
7

> <PUBCHEM_CACTVS_SUBSKEYS>
AAADceB7vAAAAAAAAAAAAAAAAAAAASJAAAAgQAAAAAAAAAAAAAAAHgAQCAAADBThgAYBAAPABgCIAiFWUACAAAAgAAAICAEIAEiJEBIAgQAOQAAPhyILgMKwMAIAAAAAAAAAAAAAAAAAAAAAAAAAAAAAAA==

> <PUBCHEM_IUPAC_OPENEYE_NAME>
1-[(2R,4S,5R)-4-hydroxy-5-(hydroxymethyl)tetrahydrofuran-2-yl]-5-[(E)-3-[1-[(2R,4S,5R)-4-hydroxy-5-(hydroxymethyl)tetrahydrofuran-2-yl]-2,4-dioxo-pyrimidin-5-yl]allyl]pyrimidine-2,4-dione

> <PUBCHEM_IUPAC_CAS_NAME>
1-[(2R,4S,5R)-4-hydroxy-5-(hydroxymethyl)-2-oxolanyl]-5-[(E)-3-[1-[(2R,4S,5R)-4-hydroxy-5-(hydroxymethyl)-2-oxolanyl]-2,4-dioxo-5-pyrimidinyl]prop-2-enyl]pyrimidine-2,4-dione

> <PUBCHEM_IUPAC_NAME_MARKUP>
1-[(2<I>R</I>,4<I>S</I>,5<I>R</I>)-4-hydroxy-5-(hydroxymethyl)oxolan-2-yl]-5-[(<I>E</I>)-3-[1-[(2<I>R</I>,4<I>S</I>,5<I>R</I>)-4-hydroxy-5-(hydroxymethyl)oxolan-2-yl]-2,4-dioxopyrimidin-5-yl]prop-2-enyl]pyrimidine-2,4-dione

> <PUBCHEM_IUPAC_NAME>
1-[(2R,4S,5R)-4-hydroxy-5-(hydroxymethyl)oxolan-2-yl]-5-[(E)-3-[1-[(2R,4S,5R)-4-hydroxy-5-(hydroxymethyl)oxolan-2-yl]-2,4-dioxopyrimidin-5-yl]prop-2-enyl]pyrimidine-2,4-dione

> <PUBCHEM_IUPAC_SYSTEMATIC_NAME>
1-[(2R,4S,5R)-5-(hydroxymethyl)-4-oxidanyl-oxolan-2-yl]-5-[(E)-3-[1-[(2R,4S,5R)-5-(hydroxymethyl)-4-oxidanyl-oxolan-2-yl]-2,4-bis(oxidanylidene)pyrimidin-5-yl]prop-2-enyl]pyrimidine-2,4-dione

> <PUBCHEM_IUPAC_TRADITIONAL_NAME>
1-[(2R,4S,5R)-4-hydroxy-5-methylol-tetrahydrofuran-2-yl]-5-[(E)-3-[1-[(2R,4S,5R)-4-hydroxy-5-methylol-tetrahydrofuran-2-yl]-2,4-diketo-pyrimidin-5-yl]allyl]pyrimidine-2,4-quinone

> <PUBCHEM_IUPAC_INCHI>
InChI=1S/C21H26N4O10/c26-8-14-12(28)4-16(34-14)24-6-10(18(30)22-20(24)32)2-1-3-11-7-25(21(33)23-19(11)31)17-5-13(29)15(9-27)35-17/h1-2,6-7,12-17,26-29H,3-5,8-9H2,(H,22,30,32)(H,23,31,33)/b2-1+/t12-,13-,14+,15+,16+,17+/m0/s1

> <PUBCHEM_IUPAC_INCHIKEY>
CDHXHODOVCXWGK-GWSUCTCTSA-N

> <PUBCHEM_XLOGP3_AA>
-2

> <PUBCHEM_EXACT_MASS>
494.16489304

> <PUBCHEM_MOLECULAR_FORMULA>
C21H26N4O10

> <PUBCHEM_MOLECULAR_WEIGHT>
494.5

> <PUBCHEM_OPENEYE_CAN_SMILES>
C1C(C(OC1N2C=C(C(=O)NC2=O)CC=CC3=CN(C(=O)NC3=O)C4CC(C(O4)CO)O)CO)O

> <PUBCHEM_OPENEYE_ISO_SMILES>
C1[C@@H]([C@H](O[C@H]1N2C=C(C(=O)NC2=O)C/C=C/C3=CN(C(=O)NC3=O)[C@H]4C[C@@H]([C@H](O4)CO)O)CO)O

> <PUBCHEM_CACTVS_TPSA>
198

> <PUBCHEM_MONOISOTOPIC_WEIGHT>
494.16489304

> <PUBCHEM_TOTAL_CHARGE>
0

> <PUBCHEM_HEAVY_ATOM_COUNT>
35

> <PUBCHEM_ATOM_DEF_STEREO_COUNT>
6

> <PUBCHEM_ATOM_UDEF_STEREO_COUNT>
0

> <PUBCHEM_BOND_DEF_STEREO_COUNT>
1

> <PUBCHEM_BOND_UDEF_STEREO_COUNT>
0

> <PUBCHEM_ISOTOPIC_ATOM_COUNT>
0

> <PUBCHEM_COMPONENT_COUNT>
1

> <PUBCHEM_CACTVS_TAUTO_COUNT>
-1

> <PUBCHEM_COORDINATE_TYPE>
1
5
255

> <PUBCHEM_BONDANNOTATIONS>
16  11  6
11  25  8
11  27  8
20  12  6
12  26  8
12  28  8
13  27  8
13  32  8
14  28  8
14  33  8
18  23  6
22  24  6
25  29  8
26  30  8
29  32  8
15  3  5
30  33  8
19  4  5

$$$$
