 
  -OEChem-10192104222D

 24 24  0     1  0  0  0  0  0999 V2000
    5.1350    2.0950    0.0000 O   0  0  0  0  0  0  0  0  0  0  0  0
    6.0010   -0.4050    0.0000 O   0  0  0  0  0  0  0  0  0  0  0  0
    2.5369   -0.4050    0.0000 O   0  0  0  0  0  0  0  0  0  0  0  0
    4.2690    0.5950    0.0000 C   0  0  3  0  0  0  0  0  0  0  0  0
    4.2690   -0.4050    0.0000 C   0  0  0  0  0  0  0  0  0  0  0  0
    5.1350    1.0950    0.0000 C   0  0  0  0  0  0  0  0  0  0  0  0
    3.4030    1.0950    0.0000 C   0  0  0  0  0  0  0  0  0  0  0  0
    5.1350   -0.9050    0.0000 C   0  0  0  0  0  0  0  0  0  0  0  0
    3.4030   -0.9050    0.0000 C   0  0  0  0  0  0  0  0  0  0  0  0
    5.1350   -1.9050    0.0000 C   0  0  0  0  0  0  0  0  0  0  0  0
    3.4030   -1.9050    0.0000 C   0  0  0  0  0  0  0  0  0  0  0  0
    4.2690   -2.4050    0.0000 C   0  0  0  0  0  0  0  0  0  0  0  0
    4.2690    1.2150    0.0000 H   0  0  0  0  0  0  0  0  0  0  0  0
    5.3471    0.5124    0.0000 H   0  0  0  0  0  0  0  0  0  0  0  0
    5.7456    1.2027    0.0000 H   0  0  0  0  0  0  0  0  0  0  0  0
    3.7130    1.6319    0.0000 H   0  0  0  0  0  0  0  0  0  0  0  0
    2.8660    1.4050    0.0000 H   0  0  0  0  0  0  0  0  0  0  0  0
    3.0930    0.5581    0.0000 H   0  0  0  0  0  0  0  0  0  0  0  0
    5.6720   -2.2150    0.0000 H   0  0  0  0  0  0  0  0  0  0  0  0
    2.8660   -2.2150    0.0000 H   0  0  0  0  0  0  0  0  0  0  0  0
    4.2690   -3.0250    0.0000 H   0  0  0  0  0  0  0  0  0  0  0  0
    5.6720    2.4050    0.0000 H   0  0  0  0  0  0  0  0  0  0  0  0
    6.5380   -0.7150    0.0000 H   0  0  0  0  0  0  0  0  0  0  0  0
    2.0000   -0.7150    0.0000 H   0  0  0  0  0  0  0  0  0  0  0  0
  1  6  1  0  0  0  0
  1 22  1  0  0  0  0
  2  8  1  0  0  0  0
  2 23  1  0  0  0  0
  3  9  1  0  0  0  0
  3 24  1  0  0  0  0
  4  5  1  0  0  0  0
  4  6  1  0  0  0  0
  4  7  1  0  0  0  0
  4 13  1  0  0  0  0
  5  8  2  0  0  0  0
  5  9  1  0  0  0  0
  6 14  1  0  0  0  0
  6 15  1  0  0  0  0
  7 16  1  0  0  0  0
  7 17  1  0  0  0  0
  7 18  1  0  0  0  0
  8 10  1  0  0  0  0
  9 11  2  0  0  0  0
 10 12  2  0  0  0  0
 10 19  1  0  0  0  0
 11 12  1  0  0  0  0
 11 20  1  0  0  0  0
 12 21  1  0  0  0  0
M  END
> <PUBCHEM_COMPOUND_CID>
117276617

> <PUBCHEM_COMPOUND_CANONICALIZED>
1

> <PUBCHEM_CACTVS_COMPLEXITY>
128

> <PUBCHEM_CACTVS_HBOND_ACCEPTOR>
3

> <PUBCHEM_CACTVS_HBOND_DONOR>
3

> <PUBCHEM_CACTVS_ROTATABLE_BOND>
2

> <PUBCHEM_CACTVS_SUBSKEYS>
AAADccBwMAAAAAAAAAAAAAAAAAAAAAAAAAAwAAAAAAAAAAABAAAAGgAACAAADQSgmAIyBoAAAgCAAiBCAAACAAAgIAAIiAAGCIgINyKCERKAcAAlwBUImAfA4OQOgAAACAAIAAAAAAAQABAAAAAAAAAAAA==

> <PUBCHEM_IUPAC_OPENEYE_NAME>
2-(2-hydroxy-1-methyl-ethyl)benzene-1,3-diol

> <PUBCHEM_IUPAC_CAS_NAME>
2-(1-hydroxypropan-2-yl)benzene-1,3-diol

> <PUBCHEM_IUPAC_NAME_MARKUP>
2-(1-hydroxypropan-2-yl)benzene-1,3-diol

> <PUBCHEM_IUPAC_NAME>
2-(1-hydroxypropan-2-yl)benzene-1,3-diol

> <PUBCHEM_IUPAC_SYSTEMATIC_NAME>
2-(1-oxidanylpropan-2-yl)benzene-1,3-diol

> <PUBCHEM_IUPAC_TRADITIONAL_NAME>
2-(2-hydroxy-1-methyl-ethyl)resorcinol

> <PUBCHEM_IUPAC_INCHI>
InChI=1S/C9H12O3/c1-6(5-10)9-7(11)3-2-4-8(9)12/h2-4,6,10-12H,5H2,1H3

> <PUBCHEM_IUPAC_INCHIKEY>
ZDTRDYPNISHOFJ-UHFFFAOYSA-N

> <PUBCHEM_XLOGP3_AA>
1.1

> <PUBCHEM_EXACT_MASS>
168.078644241

> <PUBCHEM_MOLECULAR_FORMULA>
C9H12O3

> <PUBCHEM_MOLECULAR_WEIGHT>
168.19

> <PUBCHEM_OPENEYE_CAN_SMILES>
CC(CO)C1=C(C=CC=C1O)O

> <PUBCHEM_OPENEYE_ISO_SMILES>
CC(CO)C1=C(C=CC=C1O)O

> <PUBCHEM_CACTVS_TPSA>
60.7

> <PUBCHEM_MONOISOTOPIC_WEIGHT>
168.078644241

> <PUBCHEM_TOTAL_CHARGE>
0

> <PUBCHEM_HEAVY_ATOM_COUNT>
12

> <PUBCHEM_ATOM_DEF_STEREO_COUNT>
0

> <PUBCHEM_ATOM_UDEF_STEREO_COUNT>
1

> <PUBCHEM_BOND_DEF_STEREO_COUNT>
0

> <PUBCHEM_BOND_UDEF_STEREO_COUNT>
0

> <PUBCHEM_ISOTOPIC_ATOM_COUNT>
0

> <PUBCHEM_COMPONENT_COUNT>
1

> <PUBCHEM_CACTVS_TAUTO_COUNT>
-1

> <PUBCHEM_COORDINATE_TYPE>
1
5
255

> <PUBCHEM_BONDANNOTATIONS>
10  12  8
11  12  8
4  7  3
5  8  8
5  9  8
8  10  8
9  11  8

$$$$
