 
  -OEChem-10192104182D

 25 25  0     0  0  0  0  0  0999 V2000
    4.5032   -1.4312    0.0000 O   0  0  0  0  0  0  0  0  0  0  0  0
    8.7006   -0.1232    0.0000 O   0  0  0  0  0  0  0  0  0  0  0  0
    7.5417    1.1640    0.0000 O   0  0  0  0  0  0  0  0  0  0  0  0
    8.1654   -1.7704    0.0000 O   0  0  0  0  0  0  0  0  0  0  0  0
    5.8475    0.8039    0.0000 O   0  0  0  0  0  0  0  0  0  0  0  0
    3.6942   -0.8434    0.0000 C   0  0  0  0  0  0  0  0  0  0  0  0
    2.7431   -1.1524    0.0000 C   0  0  0  0  0  0  0  0  0  0  0  0
    5.3122   -0.8434    0.0000 C   0  0  0  0  0  0  0  0  0  0  0  0
    4.0032    0.1077    0.0000 C   0  0  0  0  0  0  0  0  0  0  0  0
    5.0032    0.1077    0.0000 C   0  0  0  0  0  0  0  0  0  0  0  0
    2.0000   -0.4833    0.0000 C   0  0  0  0  0  0  0  0  0  0  0  0
    6.2633   -1.1524    0.0000 C   0  0  0  0  0  0  0  0  0  0  0  0
    7.0064   -0.4833    0.0000 C   0  0  0  0  0  0  0  0  0  0  0  0
    7.9575   -0.7923    0.0000 C   0  0  0  0  0  0  0  0  0  0  0  0
    6.7985    0.4949    0.0000 C   0  0  0  0  0  0  0  0  0  0  0  0
    2.2546   -1.5341    0.0000 H   0  0  0  0  0  0  0  0  0  0  0  0
    3.0342   -1.6998    0.0000 H   0  0  0  0  0  0  0  0  0  0  0  0
    3.6388    0.6093    0.0000 H   0  0  0  0  0  0  0  0  0  0  0  0
    5.3676    0.6093    0.0000 H   0  0  0  0  0  0  0  0  0  0  0  0
    2.4149   -0.0225    0.0000 H   0  0  0  0  0  0  0  0  0  0  0  0
    1.5392   -0.0684    0.0000 H   0  0  0  0  0  0  0  0  0  0  0  0
    1.5851   -0.9440    0.0000 H   0  0  0  0  0  0  0  0  0  0  0  0
    6.3922   -1.7589    0.0000 H   0  0  0  0  0  0  0  0  0  0  0  0
    9.2903   -0.3148    0.0000 H   0  0  0  0  0  0  0  0  0  0  0  0
    7.4128    1.7704    0.0000 H   0  0  0  0  0  0  0  0  0  0  0  0
  1  6  1  0  0  0  0
  1  8  1  0  0  0  0
  2 14  1  0  0  0  0
  2 24  1  0  0  0  0
  3 15  1  0  0  0  0
  3 25  1  0  0  0  0
  4 14  2  0  0  0  0
  5 15  2  0  0  0  0
  6  7  1  0  0  0  0
  6  9  2  0  0  0  0
  7 11  1  0  0  0  0
  7 16  1  0  0  0  0
  7 17  1  0  0  0  0
  8 10  2  0  0  0  0
  8 12  1  0  0  0  0
  9 10  1  0  0  0  0
  9 18  1  0  0  0  0
 10 19  1  0  0  0  0
 11 20  1  0  0  0  0
 11 21  1  0  0  0  0
 11 22  1  0  0  0  0
 12 13  2  0  0  0  0
 12 23  1  0  0  0  0
 13 14  1  0  0  0  0
 13 15  1  0  0  0  0
M  END
> <PUBCHEM_COMPOUND_CID>
45094959

> <PUBCHEM_COMPOUND_CANONICALIZED>
1

> <PUBCHEM_CACTVS_COMPLEXITY>
278

> <PUBCHEM_CACTVS_HBOND_ACCEPTOR>
5

> <PUBCHEM_CACTVS_HBOND_DONOR>
2

> <PUBCHEM_CACTVS_ROTATABLE_BOND>
4

> <PUBCHEM_CACTVS_SUBSKEYS>
AAADccBwOAAAAAAAAAAAAAAAAAAAASAAAAAAAAAAAAAAAAABgAAAGgAACAAADASAkAAyDIAABkCIAqDSCAACCAAkIAAIiAEGCMgMJjaMNRqCWSCl4BEIuYeIyAAAAAAAAAAAAAAAAAAAAAAAAAAAAAAAAA==

> <PUBCHEM_IUPAC_OPENEYE_NAME>
2-[(5-ethyl-2-furyl)methylene]propanedioic acid

> <PUBCHEM_IUPAC_CAS_NAME>
2-[(5-ethyl-2-furanyl)methylidene]propanedioic acid

> <PUBCHEM_IUPAC_NAME_MARKUP>
2-[(5-ethylfuran-2-yl)methylidene]propanedioic acid

> <PUBCHEM_IUPAC_NAME>
2-[(5-ethylfuran-2-yl)methylidene]propanedioic acid

> <PUBCHEM_IUPAC_SYSTEMATIC_NAME>
2-[(5-ethylfuran-2-yl)methylidene]propanedioic acid

> <PUBCHEM_IUPAC_TRADITIONAL_NAME>
2-[(5-ethyl-2-furyl)methylene]malonic acid

> <PUBCHEM_IUPAC_INCHI>
InChI=1S/C10H10O5/c1-2-6-3-4-7(15-6)5-8(9(11)12)10(13)14/h3-5H,2H2,1H3,(H,11,12)(H,13,14)

> <PUBCHEM_IUPAC_INCHIKEY>
NGWXDAHWOHJMGI-UHFFFAOYSA-N

> <PUBCHEM_XLOGP3_AA>
2.6

> <PUBCHEM_EXACT_MASS>
210.05282342

> <PUBCHEM_MOLECULAR_FORMULA>
C10H10O5

> <PUBCHEM_MOLECULAR_WEIGHT>
210.18

> <PUBCHEM_OPENEYE_CAN_SMILES>
CCC1=CC=C(O1)C=C(C(=O)O)C(=O)O

> <PUBCHEM_OPENEYE_ISO_SMILES>
CCC1=CC=C(O1)C=C(C(=O)O)C(=O)O

> <PUBCHEM_CACTVS_TPSA>
87.7

> <PUBCHEM_MONOISOTOPIC_WEIGHT>
210.05282342

> <PUBCHEM_TOTAL_CHARGE>
0

> <PUBCHEM_HEAVY_ATOM_COUNT>
15

> <PUBCHEM_ATOM_DEF_STEREO_COUNT>
0

> <PUBCHEM_ATOM_UDEF_STEREO_COUNT>
0

> <PUBCHEM_BOND_DEF_STEREO_COUNT>
0

> <PUBCHEM_BOND_UDEF_STEREO_COUNT>
0

> <PUBCHEM_ISOTOPIC_ATOM_COUNT>
0

> <PUBCHEM_COMPONENT_COUNT>
1

> <PUBCHEM_CACTVS_TAUTO_COUNT>
-1

> <PUBCHEM_COORDINATE_TYPE>
1
5
255

> <PUBCHEM_BONDANNOTATIONS>
1  6  8
1  8  8
6  9  8
8  10  8
9  10  8

$$$$
