 
  -OEChem-10192104182D

 84 88  0     1  0  0  0  0  0999 V2000
    9.7942   -1.2857    0.0000 O   0  0  0  0  0  0  0  0  0  0  0  0
    7.1962   -1.7857    0.0000 O   0  0  0  0  0  0  0  0  0  0  0  0
    6.3301   -0.2857    0.0000 O   0  0  0  0  0  0  0  0  0  0  0  0
    8.0622   -3.2857    0.0000 O   0  0  0  0  0  0  0  0  0  0  0  0
    9.7942   -4.2857    0.0000 O   0  0  0  0  0  0  0  0  0  0  0  0
   11.5263   -1.2857    0.0000 O   0  0  0  0  0  0  0  0  0  0  0  0
    5.4641   -2.7857    0.0000 O   0  0  0  0  0  0  0  0  0  0  0  0
   11.5263   -3.2857    0.0000 O   0  0  0  0  0  0  0  0  0  0  0  0
    3.7320   -1.7857    0.0000 O   0  0  0  0  0  0  0  0  0  0  0  0
    3.7320    0.2143    0.0000 O   0  0  0  0  0  0  0  0  0  0  0  0
   12.3923    1.2143    0.0000 O   0  0  0  0  0  0  0  0  0  0  0  0
    3.7320   -2.7857    0.0000 O   0  0  0  0  0  0  0  0  0  0  0  0
    2.8660   -0.2857    0.0000 O   0  0  0  0  0  0  0  0  0  0  0  0
    4.5981    1.7143    0.0000 O   0  0  0  0  0  0  0  0  0  0  0  0
    9.7942   -0.2857    0.0000 O   0  0  0  0  0  0  0  0  0  0  0  0
    8.8901    1.2112    0.0000 O   0  0  0  0  0  0  0  0  0  0  0  0
   10.6482    4.2836    0.0000 O   0  0  0  0  0  0  0  0  0  0  0  0
   15.8564   -1.7857    0.0000 O   0  0  0  0  0  0  0  0  0  0  0  0
    8.9282   -1.7857    0.0000 C   0  0  3  0  0  0  0  0  0  0  0  0
    8.9282   -2.7857    0.0000 C   0  0  2  0  0  0  0  0  0  0  0  0
    9.7942   -3.2857    0.0000 C   0  0  3  0  0  0  0  0  0  0  0  0
   10.6603   -2.7857    0.0000 C   0  0  3  0  0  0  0  0  0  0  0  0
    5.4641   -1.7857    0.0000 C   0  0  3  0  0  0  0  0  0  0  0  0
   10.6603   -1.7857    0.0000 C   0  0  1  0  0  0  0  0  0  0  0  0
    4.5981   -1.2857    0.0000 C   0  0  2  0  0  0  0  0  0  0  0  0
    6.3301   -1.2857    0.0000 C   0  0  2  0  0  0  0  0  0  0  0  0
    8.0622   -1.2857    0.0000 C   0  0  0  0  0  0  0  0  0  0  0  0
    4.5981   -0.2857    0.0000 C   0  0  2  0  0  0  0  0  0  0  0  0
    5.4641    0.2143    0.0000 C   0  0  0  0  0  0  0  0  0  0  0  0
   11.5263   -0.2857    0.0000 C   0  0  0  0  0  0  0  0  0  0  0  0
    4.5981   -3.2857    0.0000 C   0  0  0  0  0  0  0  0  0  0  0  0
    2.8660   -1.2857    0.0000 C   0  0  0  0  0  0  0  0  0  0  0  0
    3.7320    1.2143    0.0000 C   0  0  0  0  0  0  0  0  0  0  0  0
   12.3923    0.2143    0.0000 C   0  0  0  0  0  0  0  0  0  0  0  0
   10.6603    0.2143    0.0000 C   0  0  0  0  0  0  0  0  0  0  0  0
   10.6603    1.2143    0.0000 C   0  0  0  0  0  0  0  0  0  0  0  0
    4.5981   -4.2857    0.0000 C   0  0  0  0  0  0  0  0  0  0  0  0
    2.0000   -1.7857    0.0000 C   0  0  0  0  0  0  0  0  0  0  0  0
    2.8660    1.7143    0.0000 C   0  0  0  0  0  0  0  0  0  0  0  0
   13.2583   -0.2857    0.0000 C   0  0  0  0  0  0  0  0  0  0  0  0
   11.5263    1.7143    0.0000 C   0  0  0  0  0  0  0  0  0  0  0  0
    9.7502    1.7212    0.0000 C   0  0  0  0  0  0  0  0  0  0  0  0
   11.5423    2.7558    0.0000 C   0  0  0  0  0  0  0  0  0  0  0  0
   13.2583   -1.2857    0.0000 C   0  0  0  0  0  0  0  0  0  0  0  0
   14.1244    0.2143    0.0000 C   0  0  0  0  0  0  0  0  0  0  0  0
    9.7422    2.7628    0.0000 C   0  0  0  0  0  0  0  0  0  0  0  0
   10.6443    3.2836    0.0000 C   0  0  0  0  0  0  0  0  0  0  0  0
   14.1244   -1.7857    0.0000 C   0  0  0  0  0  0  0  0  0  0  0  0
   14.9904   -0.2857    0.0000 C   0  0  0  0  0  0  0  0  0  0  0  0
   14.9904   -1.2857    0.0000 C   0  0  0  0  0  0  0  0  0  0  0  0
    8.9282   -1.1657    0.0000 H   0  0  0  0  0  0  0  0  0  0  0  0
    8.9282   -3.4057    0.0000 H   0  0  0  0  0  0  0  0  0  0  0  0
   10.3312   -3.5957    0.0000 H   0  0  0  0  0  0  0  0  0  0  0  0
   10.6603   -3.4057    0.0000 H   0  0  0  0  0  0  0  0  0  0  0  0
    4.9272   -2.0957    0.0000 H   0  0  0  0  0  0  0  0  0  0  0  0
   11.1972   -2.0957    0.0000 H   0  0  0  0  0  0  0  0  0  0  0  0
    4.0611   -0.9757    0.0000 H   0  0  0  0  0  0  0  0  0  0  0  0
    6.3301   -1.9057    0.0000 H   0  0  0  0  0  0  0  0  0  0  0  0
    8.4607   -0.8107    0.0000 H   0  0  0  0  0  0  0  0  0  0  0  0
    7.6636   -0.8107    0.0000 H   0  0  0  0  0  0  0  0  0  0  0  0
    4.5981    0.3343    0.0000 H   0  0  0  0  0  0  0  0  0  0  0  0
    5.8626    0.6893    0.0000 H   0  0  0  0  0  0  0  0  0  0  0  0
    5.0656    0.6893    0.0000 H   0  0  0  0  0  0  0  0  0  0  0  0
    8.0622   -3.9057    0.0000 H   0  0  0  0  0  0  0  0  0  0  0  0
    9.2573   -4.5957    0.0000 H   0  0  0  0  0  0  0  0  0  0  0  0
   11.5263   -3.9057    0.0000 H   0  0  0  0  0  0  0  0  0  0  0  0
    3.9781   -4.2857    0.0000 H   0  0  0  0  0  0  0  0  0  0  0  0
    4.5981   -4.9057    0.0000 H   0  0  0  0  0  0  0  0  0  0  0  0
    5.2181   -4.2857    0.0000 H   0  0  0  0  0  0  0  0  0  0  0  0
    1.6900   -1.2487    0.0000 H   0  0  0  0  0  0  0  0  0  0  0  0
    1.4631   -2.0957    0.0000 H   0  0  0  0  0  0  0  0  0  0  0  0
    2.3100   -2.3226    0.0000 H   0  0  0  0  0  0  0  0  0  0  0  0
    3.1760    2.2513    0.0000 H   0  0  0  0  0  0  0  0  0  0  0  0
    2.3291    2.0243    0.0000 H   0  0  0  0  0  0  0  0  0  0  0  0
    2.5560    1.1774    0.0000 H   0  0  0  0  0  0  0  0  0  0  0  0
   12.0828    3.0596    0.0000 H   0  0  0  0  0  0  0  0  0  0  0  0
   12.7214   -1.5957    0.0000 H   0  0  0  0  0  0  0  0  0  0  0  0
   14.1244    0.8343    0.0000 H   0  0  0  0  0  0  0  0  0  0  0  0
    9.2041    3.0707    0.0000 H   0  0  0  0  0  0  0  0  0  0  0  0
   14.1244   -2.4057    0.0000 H   0  0  0  0  0  0  0  0  0  0  0  0
   15.5273    0.0243    0.0000 H   0  0  0  0  0  0  0  0  0  0  0  0
    8.3496    1.5150    0.0000 H   0  0  0  0  0  0  0  0  0  0  0  0
   10.1124    4.5957    0.0000 H   0  0  0  0  0  0  0  0  0  0  0  0
   15.8564   -2.4057    0.0000 H   0  0  0  0  0  0  0  0  0  0  0  0
  1 19  1  0  0  0  0
  1 24  1  0  0  0  0
 26  2  1  1  0  0  0
  2 27  1  0  0  0  0
  3 26  1  0  0  0  0
  3 29  1  0  0  0  0
 20  4  1  6  0  0  0
  4 64  1  0  0  0  0
  5 21  1  0  0  0  0
  5 65  1  0  0  0  0
 24  6  1  1  0  0  0
  6 30  1  0  0  0  0
  7 23  1  0  0  0  0
  7 31  1  0  0  0  0
  8 22  1  0  0  0  0
  8 66  1  0  0  0  0
 25  9  1  1  0  0  0
  9 32  1  0  0  0  0
 28 10  1  1  0  0  0
 10 33  1  0  0  0  0
 11 34  1  0  0  0  0
 11 41  1  0  0  0  0
 12 31  2  0  0  0  0
 13 32  2  0  0  0  0
 14 33  2  0  0  0  0
 15 35  2  0  0  0  0
 16 42  1  0  0  0  0
 16 82  1  0  0  0  0
 17 47  1  0  0  0  0
 17 83  1  0  0  0  0
 18 50  1  0  0  0  0
 18 84  1  0  0  0  0
 19 20  1  0  0  0  0
 19 27  1  0  0  0  0
 19 51  1  0  0  0  0
 20 21  1  0  0  0  0
 20 52  1  0  0  0  0
 21 22  1  0  0  0  0
 21 53  1  0  0  0  0
 22 24  1  0  0  0  0
 22 54  1  0  0  0  0
 23 25  1  0  0  0  0
 23 26  1  0  0  0  0
 23 55  1  0  0  0  0
 24 56  1  0  0  0  0
 25 28  1  0  0  0  0
 25 57  1  0  0  0  0
 26 58  1  0  0  0  0
 27 59  1  0  0  0  0
 27 60  1  0  0  0  0
 28 29  1  0  0  0  0
 28 61  1  0  0  0  0
 29 62  1  0  0  0  0
 29 63  1  0  0  0  0
 30 34  2  0  0  0  0
 30 35  1  0  0  0  0
 31 37  1  0  0  0  0
 32 38  1  0  0  0  0
 33 39  1  0  0  0  0
 34 40  1  0  0  0  0
 35 36  1  0  0  0  0
 36 41  1  0  0  0  0
 36 42  2  0  0  0  0
 37 67  1  0  0  0  0
 37 68  1  0  0  0  0
 37 69  1  0  0  0  0
 38 70  1  0  0  0  0
 38 71  1  0  0  0  0
 38 72  1  0  0  0  0
 39 73  1  0  0  0  0
 39 74  1  0  0  0  0
 39 75  1  0  0  0  0
 40 44  2  0  0  0  0
 40 45  1  0  0  0  0
 41 43  2  0  0  0  0
 42 46  1  0  0  0  0
 43 47  1  0  0  0  0
 43 76  1  0  0  0  0
 44 48  1  0  0  0  0
 44 77  1  0  0  0  0
 45 49  2  0  0  0  0
 45 78  1  0  0  0  0
 46 47  2  0  0  0  0
 46 79  1  0  0  0  0
 48 50  2  0  0  0  0
 48 80  1  0  0  0  0
 49 50  1  0  0  0  0
 49 81  1  0  0  0  0
M  END
> <PUBCHEM_COMPOUND_CID>
44258873

> <PUBCHEM_COMPOUND_CANONICALIZED>
1

> <PUBCHEM_CACTVS_COMPLEXITY>
1280

> <PUBCHEM_CACTVS_HBOND_ACCEPTOR>
18

> <PUBCHEM_CACTVS_HBOND_DONOR>
6

> <PUBCHEM_CACTVS_ROTATABLE_BOND>
12

> <PUBCHEM_CACTVS_SUBSKEYS>
AAADcfB8PgAAAAAAAAAAAAAAAAAAAAAAAAA0aIECAAAAAACBQAAAGgAACAAADBSwmAMyDoAABgCIAqDSCAICCAAkIAAIiAFGCMgdNzaGNR6ieWCl4BUPuQfI7KzOIAAACAAIAABAAAAQABAAAAAAAAAAAA==

> <PUBCHEM_IUPAC_OPENEYE_NAME>
[(3S,4S,6R)-4,5-diacetoxy-6-[[(3S,6S)-6-[5,7-dihydroxy-2-(4-hydroxyphenyl)-4-oxo-chromen-3-yl]oxy-3,4,5-trihydroxy-tetrahydropyran-2-yl]methoxy]tetrahydropyran-3-yl] acetate

> <PUBCHEM_IUPAC_CAS_NAME>
acetic acid [(3S,4S,6R)-4,5-diacetyloxy-6-[[(3S,6S)-6-[[5,7-dihydroxy-2-(4-hydroxyphenyl)-4-oxo-1-benzopyran-3-yl]oxy]-3,4,5-trihydroxy-2-oxanyl]methoxy]-3-oxanyl] ester

> <PUBCHEM_IUPAC_NAME_MARKUP>
[(3<I>S</I>,4<I>S</I>,6<I>R</I>)-4,5-diacetyloxy-6-[[(3<I>S</I>,6<I>S</I>)-6-[5,7-dihydroxy-2-(4-hydroxyphenyl)-4-oxochromen-3-yl]oxy-3,4,5-trihydroxyoxan-2-yl]methoxy]oxan-3-yl] acetate

> <PUBCHEM_IUPAC_NAME>
[(3S,4S,6R)-4,5-diacetyloxy-6-[[(3S,6S)-6-[5,7-dihydroxy-2-(4-hydroxyphenyl)-4-oxochromen-3-yl]oxy-3,4,5-trihydroxyoxan-2-yl]methoxy]oxan-3-yl] acetate

> <PUBCHEM_IUPAC_SYSTEMATIC_NAME>
[(3S,4S,6R)-4,5-diacetyloxy-6-[[(3S,6S)-6-[2-(4-hydroxyphenyl)-5,7-bis(oxidanyl)-4-oxidanylidene-chromen-3-yl]oxy-3,4,5-tris(oxidanyl)oxan-2-yl]methoxy]oxan-3-yl] ethanoate

> <PUBCHEM_IUPAC_TRADITIONAL_NAME>
acetic acid [(3S,4S,6R)-4,5-diacetoxy-6-[[(3S,6S)-6-[5,7-dihydroxy-2-(4-hydroxyphenyl)-4-keto-chromen-3-yl]oxy-3,4,5-trihydroxy-tetrahydropyran-2-yl]methoxy]tetrahydropyran-3-yl] ester

> <PUBCHEM_IUPAC_INCHI>
InChI=1S/C32H34O18/c1-12(33)45-21-11-44-32(30(47-14(3)35)28(21)46-13(2)34)43-10-20-23(39)25(41)26(42)31(49-20)50-29-24(40)22-18(38)8-17(37)9-19(22)48-27(29)15-4-6-16(36)7-5-15/h4-9,20-21,23,25-26,28,30-32,36-39,41-42H,10-11H2,1-3H3/t20?,21-,23+,25?,26?,28-,30?,31-,32+/m0/s1

> <PUBCHEM_IUPAC_INCHIKEY>
IOLQBAHNCVLDFS-UJGNVPEISA-N

> <PUBCHEM_XLOGP3_AA>
0.4

> <PUBCHEM_EXACT_MASS>
706.17451423

> <PUBCHEM_MOLECULAR_FORMULA>
C32H34O18

> <PUBCHEM_MOLECULAR_WEIGHT>
706.6

> <PUBCHEM_OPENEYE_CAN_SMILES>
CC(=O)OC1COC(C(C1OC(=O)C)OC(=O)C)OCC2C(C(C(C(O2)OC3=C(OC4=CC(=CC(=C4C3=O)O)O)C5=CC=C(C=C5)O)O)O)O

> <PUBCHEM_OPENEYE_ISO_SMILES>
CC(=O)O[C@H]1CO[C@H](C([C@H]1OC(=O)C)OC(=O)C)OCC2[C@H](C(C([C@@H](O2)OC3=C(OC4=CC(=CC(=C4C3=O)O)O)C5=CC=C(C=C5)O)O)O)O

> <PUBCHEM_CACTVS_TPSA>
264

> <PUBCHEM_MONOISOTOPIC_WEIGHT>
706.17451423

> <PUBCHEM_TOTAL_CHARGE>
0

> <PUBCHEM_HEAVY_ATOM_COUNT>
50

> <PUBCHEM_ATOM_DEF_STEREO_COUNT>
5

> <PUBCHEM_ATOM_UDEF_STEREO_COUNT>
4

> <PUBCHEM_BOND_DEF_STEREO_COUNT>
0

> <PUBCHEM_BOND_UDEF_STEREO_COUNT>
0

> <PUBCHEM_ISOTOPIC_ATOM_COUNT>
0

> <PUBCHEM_COMPONENT_COUNT>
1

> <PUBCHEM_CACTVS_TAUTO_COUNT>
-1

> <PUBCHEM_COORDINATE_TYPE>
1
5
255

> <PUBCHEM_BONDANNOTATIONS>
28  10  5
11  34  8
11  41  8
19  27  3
26  2  5
30  34  8
30  35  8
35  36  8
36  41  8
36  42  8
20  4  6
40  44  8
40  45  8
41  43  8
42  46  8
43  47  8
44  48  8
45  49  8
46  47  8
48  50  8
49  50  8
21  5  3
24  6  5
23  7  3
22  8  3
25  9  5

$$$$
