 
  -OEChem-10192104152D

 28 28  0     0  0  0  0  0  0999 V2000
    3.7320   -0.4050    0.0000 S   0  0  0  0  0  0  0  0  0  0  0  0
    4.5981    2.0950    0.0000 S   0  0  0  0  0  0  0  0  0  0  0  0
    4.7320   -0.4050    0.0000 O   0  0  0  0  0  0  0  0  0  0  0  0
    2.7320   -0.4050    0.0000 O   0  0  0  0  0  0  0  0  0  0  0  0
    5.5981    2.0950    0.0000 O   0  0  0  0  0  0  0  0  0  0  0  0
    3.5981    2.0950    0.0000 O   0  0  0  0  0  0  0  0  0  0  0  0
    2.0000   -1.4050    0.0000 O   0  0  0  0  0  0  0  0  0  0  0  0
    2.8660   -2.9050    0.0000 N   0  0  0  0  0  0  0  0  0  0  0  0
    4.5981   -1.9050    0.0000 N   0  0  0  0  0  0  0  0  0  0  0  0
    4.5981    3.0950    0.0000 N   0  0  0  0  0  0  0  0  0  0  0  0
    3.7320    0.5950    0.0000 C   0  0  0  0  0  0  0  0  0  0  0  0
    4.5981    1.0950    0.0000 C   0  0  0  0  0  0  0  0  0  0  0  0
    3.7320   -1.4050    0.0000 C   0  0  0  0  0  0  0  0  0  0  0  0
    2.8660   -1.9050    0.0000 C   0  0  0  0  0  0  0  0  0  0  0  0
    3.7320   -3.4050    0.0000 C   0  0  0  0  0  0  0  0  0  0  0  0
    4.5981   -2.9050    0.0000 C   0  0  0  0  0  0  0  0  0  0  0  0
    2.0000   -3.4050    0.0000 C   0  0  0  0  0  0  0  0  0  0  0  0
    3.5200    1.1776    0.0000 H   0  0  0  0  0  0  0  0  0  0  0  0
    3.1215    0.4873    0.0000 H   0  0  0  0  0  0  0  0  0  0  0  0
    4.8101    0.5124    0.0000 H   0  0  0  0  0  0  0  0  0  0  0  0
    5.2087    1.2027    0.0000 H   0  0  0  0  0  0  0  0  0  0  0  0
    5.1350    3.4050    0.0000 H   0  0  0  0  0  0  0  0  0  0  0  0
    4.0611    3.4050    0.0000 H   0  0  0  0  0  0  0  0  0  0  0  0
    3.7320   -4.0250    0.0000 H   0  0  0  0  0  0  0  0  0  0  0  0
    5.1350   -3.2150    0.0000 H   0  0  0  0  0  0  0  0  0  0  0  0
    1.6900   -2.8681    0.0000 H   0  0  0  0  0  0  0  0  0  0  0  0
    1.4631   -3.7150    0.0000 H   0  0  0  0  0  0  0  0  0  0  0  0
    2.3100   -3.9419    0.0000 H   0  0  0  0  0  0  0  0  0  0  0  0
  1  3  2  0  0  0  0
  1  4  2  0  0  0  0
  1 11  1  0  0  0  0
  1 13  1  0  0  0  0
  2  5  2  0  0  0  0
  2  6  2  0  0  0  0
  2 10  1  0  0  0  0
  2 12  1  0  0  0  0
  7 14  2  0  0  0  0
  8 14  1  0  0  0  0
  8 15  1  0  0  0  0
  8 17  1  0  0  0  0
  9 13  2  0  0  0  0
  9 16  1  0  0  0  0
 10 22  1  0  0  0  0
 10 23  1  0  0  0  0
 11 12  1  0  0  0  0
 11 18  1  0  0  0  0
 11 19  1  0  0  0  0
 12 20  1  0  0  0  0
 12 21  1  0  0  0  0
 13 14  1  0  0  0  0
 15 16  2  0  0  0  0
 15 24  1  0  0  0  0
 16 25  1  0  0  0  0
 17 26  1  0  0  0  0
 17 27  1  0  0  0  0
 17 28  1  0  0  0  0
M  END
> <PUBCHEM_COMPOUND_CID>
64036683

> <PUBCHEM_COMPOUND_CANONICALIZED>
1

> <PUBCHEM_CACTVS_COMPLEXITY>
576

> <PUBCHEM_CACTVS_HBOND_ACCEPTOR>
7

> <PUBCHEM_CACTVS_HBOND_DONOR>
1

> <PUBCHEM_CACTVS_ROTATABLE_BOND>
4

> <PUBCHEM_CACTVS_SUBSKEYS>
AAADccBjOABgAAAAAAAAAAAAAAAAAAAAAAAgAAAAAAAAAAAAAAAAHgQQQAAAAADFwASCAAMAAAqoAAE2VHBAEAAAAhAIAAAIAAAAAAAAAAAAAAAAAgAgAAAAAAAAAAAAAAAAAAAAAAAAAAAAAAAAAAAAAA==

> <PUBCHEM_IUPAC_OPENEYE_NAME>
2-(4-methyl-3-oxo-pyrazin-2-yl)sulfonylethanesulfonamide

> <PUBCHEM_IUPAC_CAS_NAME>
2-[(4-methyl-3-oxo-2-pyrazinyl)sulfonyl]ethanesulfonamide

> <PUBCHEM_IUPAC_NAME_MARKUP>
2-(4-methyl-3-oxopyrazin-2-yl)sulfonylethanesulfonamide

> <PUBCHEM_IUPAC_NAME>
2-(4-methyl-3-oxopyrazin-2-yl)sulfonylethanesulfonamide

> <PUBCHEM_IUPAC_SYSTEMATIC_NAME>
2-(4-methyl-3-oxidanylidene-pyrazin-2-yl)sulfonylethanesulfonamide

> <PUBCHEM_IUPAC_TRADITIONAL_NAME>
2-(3-keto-4-methyl-pyrazin-2-yl)sulfonylethanesulfonamide

> <PUBCHEM_IUPAC_INCHI>
InChI=1S/C7H11N3O5S2/c1-10-3-2-9-6(7(10)11)16(12,13)4-5-17(8,14)15/h2-3H,4-5H2,1H3,(H2,8,14,15)

> <PUBCHEM_IUPAC_INCHIKEY>
MNUHPBGPEWQQCD-UHFFFAOYSA-N

> <PUBCHEM_XLOGP3_AA>
-2.2

> <PUBCHEM_EXACT_MASS>
281.01401281

> <PUBCHEM_MOLECULAR_FORMULA>
C7H11N3O5S2

> <PUBCHEM_MOLECULAR_WEIGHT>
281.3

> <PUBCHEM_OPENEYE_CAN_SMILES>
CN1C=CN=C(C1=O)S(=O)(=O)CCS(=O)(=O)N

> <PUBCHEM_OPENEYE_ISO_SMILES>
CN1C=CN=C(C1=O)S(=O)(=O)CCS(=O)(=O)N

> <PUBCHEM_CACTVS_TPSA>
144

> <PUBCHEM_MONOISOTOPIC_WEIGHT>
281.01401281

> <PUBCHEM_TOTAL_CHARGE>
0

> <PUBCHEM_HEAVY_ATOM_COUNT>
17

> <PUBCHEM_ATOM_DEF_STEREO_COUNT>
0

> <PUBCHEM_ATOM_UDEF_STEREO_COUNT>
0

> <PUBCHEM_BOND_DEF_STEREO_COUNT>
0

> <PUBCHEM_BOND_UDEF_STEREO_COUNT>
0

> <PUBCHEM_ISOTOPIC_ATOM_COUNT>
0

> <PUBCHEM_COMPONENT_COUNT>
1

> <PUBCHEM_CACTVS_TAUTO_COUNT>
-1

> <PUBCHEM_COORDINATE_TYPE>
1
5
255

> <PUBCHEM_BONDANNOTATIONS>
13  14  8
15  16  8
8  14  8
8  15  8
9  13  8
9  16  8

$$$$
