 
  -OEChem-10192104432D

 74 78  0     1  0  0  0  0  0999 V2000
    6.5997   -0.0982    0.0000 O   0  0  0  0  0  0  0  0  0  0  0  0
    7.2377    2.9035    0.0000 O   0  0  0  0  0  0  0  0  0  0  0  0
    9.2453   -2.6914    0.0000 O   0  0  0  0  0  0  0  0  0  0  0  0
    7.5133   -2.6914    0.0000 O   0  0  0  0  0  0  0  0  0  0  0  0
   10.9774    0.3086    0.0000 O   0  0  0  0  0  0  0  0  0  0  0  0
    2.8652    2.5059    0.0000 O   0  0  0  0  0  0  0  0  0  0  0  0
    4.6024    5.5029    0.0000 O   0  0  0  0  0  0  0  0  0  0  0  0
    9.2453   -4.6914    0.0000 O   0  0  0  0  0  0  0  0  0  0  0  0
    7.5133   -5.6914    0.0000 O   0  0  0  0  0  0  0  0  0  0  0  0
    5.7812   -4.6914    0.0000 O   0  0  0  0  0  0  0  0  0  0  0  0
   10.9774   -1.6914    0.0000 O   0  0  0  0  0  0  0  0  0  0  0  0
    2.8686    4.5059    0.0000 O   0  0  0  0  0  0  0  0  0  0  0  0
    4.9152   -3.1914    0.0000 O   0  0  0  0  0  0  0  0  0  0  0  0
    7.4088    1.3031    0.0000 C   0  0  2  0  0  0  0  0  0  0  0  0
    6.4306    1.5110    0.0000 C   0  0  2  0  0  0  0  0  0  0  0  0
    7.5133    0.3086    0.0000 C   0  0  1  0  0  0  0  0  0  0  0  0
    6.3293    2.4999    0.0000 C   0  0  2  0  0  0  0  0  0  0  0  0
    5.9306    0.6450    0.0000 C   0  0  0  0  0  0  0  0  0  0  0  0
    7.9036    2.1653    0.0000 C   0  0  0  0  0  0  0  0  0  0  0  0
    8.3793   -0.1914    0.0000 C   0  0  0  0  0  0  0  0  0  0  0  0
    5.4641    3.0014    0.0000 C   0  0  0  0  0  0  0  0  0  0  0  0
    8.3793   -1.1914    0.0000 C   0  0  0  0  0  0  0  0  0  0  0  0
    9.2453    0.3086    0.0000 C   0  0  0  0  0  0  0  0  0  0  0  0
    5.4658    4.0014    0.0000 C   0  0  0  0  0  0  0  0  0  0  0  0
    4.5972    2.5029    0.0000 C   0  0  0  0  0  0  0  0  0  0  0  0
    9.2453   -1.6914    0.0000 C   0  0  0  0  0  0  0  0  0  0  0  0
   10.1114   -0.1914    0.0000 C   0  0  0  0  0  0  0  0  0  0  0  0
    8.3793   -3.1914    0.0000 C   0  0  1  0  0  0  0  0  0  0  0  0
    8.3793   -4.1914    0.0000 C   0  0  2  0  0  0  0  0  0  0  0  0
    7.5133   -4.6914    0.0000 C   0  0  1  0  0  0  0  0  0  0  0  0
    3.7320    3.0044    0.0000 C   0  0  0  0  0  0  0  0  0  0  0  0
    4.6007    4.5029    0.0000 C   0  0  0  0  0  0  0  0  0  0  0  0
    6.6472   -4.1914    0.0000 C   0  0  2  0  0  0  0  0  0  0  0  0
   10.1114   -1.1914    0.0000 C   0  0  0  0  0  0  0  0  0  0  0  0
    6.6472   -3.1914    0.0000 C   0  0  2  0  0  0  0  0  0  0  0  0
    3.7338    4.0044    0.0000 C   0  0  0  0  0  0  0  0  0  0  0  0
    5.7812   -2.6914    0.0000 C   0  0  0  0  0  0  0  0  0  0  0  0
   10.9774    1.3086    0.0000 C   0  0  0  0  0  0  0  0  0  0  0  0
    2.0000    3.0074    0.0000 C   0  0  0  0  0  0  0  0  0  0  0  0
    5.4693    6.0014    0.0000 C   0  0  0  0  0  0  0  0  0  0  0  0
    8.2404    1.1275    0.0000 H   0  0  0  0  0  0  0  0  0  0  0  0
    5.5994    1.6888    0.0000 H   0  0  0  0  0  0  0  0  0  0  0  0
    7.4808   -0.3106    0.0000 H   0  0  0  0  0  0  0  0  0  0  0  0
    6.3625    3.1190    0.0000 H   0  0  0  0  0  0  0  0  0  0  0  0
    5.4290    1.0094    0.0000 H   0  0  0  0  0  0  0  0  0  0  0  0
    5.5157    0.1842    0.0000 H   0  0  0  0  0  0  0  0  0  0  0  0
    8.4059    1.8019    0.0000 H   0  0  0  0  0  0  0  0  0  0  0  0
    8.3178    2.6266    0.0000 H   0  0  0  0  0  0  0  0  0  0  0  0
    7.8424   -1.5014    0.0000 H   0  0  0  0  0  0  0  0  0  0  0  0
    9.2453    0.9286    0.0000 H   0  0  0  0  0  0  0  0  0  0  0  0
    6.0033    4.3105    0.0000 H   0  0  0  0  0  0  0  0  0  0  0  0
    4.5961    1.8829    0.0000 H   0  0  0  0  0  0  0  0  0  0  0  0
    8.9162   -3.5014    0.0000 H   0  0  0  0  0  0  0  0  0  0  0  0
    8.3793   -4.8114    0.0000 H   0  0  0  0  0  0  0  0  0  0  0  0
    6.9763   -5.0014    0.0000 H   0  0  0  0  0  0  0  0  0  0  0  0
    6.1103   -3.8814    0.0000 H   0  0  0  0  0  0  0  0  0  0  0  0
    6.6472   -2.5714    0.0000 H   0  0  0  0  0  0  0  0  0  0  0  0
    6.1798   -2.2165    0.0000 H   0  0  0  0  0  0  0  0  0  0  0  0
    5.3827   -2.2165    0.0000 H   0  0  0  0  0  0  0  0  0  0  0  0
    9.7823   -4.3814    0.0000 H   0  0  0  0  0  0  0  0  0  0  0  0
    8.0502   -6.0014    0.0000 H   0  0  0  0  0  0  0  0  0  0  0  0
    5.7812   -5.3114    0.0000 H   0  0  0  0  0  0  0  0  0  0  0  0
   11.5143   -1.3814    0.0000 H   0  0  0  0  0  0  0  0  0  0  0  0
    2.8697    5.1259    0.0000 H   0  0  0  0  0  0  0  0  0  0  0  0
   11.5974    1.3086    0.0000 H   0  0  0  0  0  0  0  0  0  0  0  0
   10.9774    1.9286    0.0000 H   0  0  0  0  0  0  0  0  0  0  0  0
   10.3574    1.3086    0.0000 H   0  0  0  0  0  0  0  0  0  0  0  0
    4.3783   -2.8814    0.0000 H   0  0  0  0  0  0  0  0  0  0  0  0
    2.3109    3.5438    0.0000 H   0  0  0  0  0  0  0  0  0  0  0  0
    1.4636    3.3183    0.0000 H   0  0  0  0  0  0  0  0  0  0  0  0
    1.6891    2.4710    0.0000 H   0  0  0  0  0  0  0  0  0  0  0  0
    5.7784    5.4639    0.0000 H   0  0  0  0  0  0  0  0  0  0  0  0
    6.0068    6.3105    0.0000 H   0  0  0  0  0  0  0  0  0  0  0  0
    5.1602    6.5389    0.0000 H   0  0  0  0  0  0  0  0  0  0  0  0
  1 16  1  0  0  0  0
  1 18  1  0  0  0  0
  2 17  1  0  0  0  0
  2 19  1  0  0  0  0
  3 26  1  0  0  0  0
 28  3  1  6  0  0  0
  4 28  1  0  0  0  0
  4 35  1  0  0  0  0
  5 27  1  0  0  0  0
  5 38  1  0  0  0  0
  6 31  1  0  0  0  0
  6 39  1  0  0  0  0
  7 32  1  0  0  0  0
  7 40  1  0  0  0  0
 29  8  1  1  0  0  0
  8 60  1  0  0  0  0
 30  9  1  6  0  0  0
  9 61  1  0  0  0  0
 33 10  1  1  0  0  0
 10 62  1  0  0  0  0
 11 34  1  0  0  0  0
 11 63  1  0  0  0  0
 12 36  1  0  0  0  0
 12 64  1  0  0  0  0
 13 37  1  0  0  0  0
 13 68  1  0  0  0  0
 14 15  1  0  0  0  0
 14 16  1  0  0  0  0
 14 19  1  0  0  0  0
 14 41  1  6  0  0  0
 15 17  1  0  0  0  0
 15 18  1  0  0  0  0
 15 42  1  6  0  0  0
 16 20  1  1  0  0  0
 16 43  1  0  0  0  0
 17 21  1  6  0  0  0
 17 44  1  0  0  0  0
 18 45  1  0  0  0  0
 18 46  1  0  0  0  0
 19 47  1  0  0  0  0
 19 48  1  0  0  0  0
 20 22  1  0  0  0  0
 20 23  2  0  0  0  0
 21 24  2  0  0  0  0
 21 25  1  0  0  0  0
 22 26  2  0  0  0  0
 22 49  1  0  0  0  0
 23 27  1  0  0  0  0
 23 50  1  0  0  0  0
 24 32  1  0  0  0  0
 24 51  1  0  0  0  0
 25 31  2  0  0  0  0
 25 52  1  0  0  0  0
 26 34  1  0  0  0  0
 27 34  2  0  0  0  0
 28 29  1  0  0  0  0
 28 53  1  0  0  0  0
 29 30  1  0  0  0  0
 29 54  1  0  0  0  0
 30 33  1  0  0  0  0
 30 55  1  0  0  0  0
 31 36  1  0  0  0  0
 32 36  2  0  0  0  0
 33 35  1  0  0  0  0
 33 56  1  0  0  0  0
 35 37  1  6  0  0  0
 35 57  1  0  0  0  0
 37 58  1  0  0  0  0
 37 59  1  0  0  0  0
 38 65  1  0  0  0  0
 38 66  1  0  0  0  0
 38 67  1  0  0  0  0
 39 69  1  0  0  0  0
 39 70  1  0  0  0  0
 39 71  1  0  0  0  0
 40 72  1  0  0  0  0
 40 73  1  0  0  0  0
 40 74  1  0  0  0  0
M  END
> <PUBCHEM_COMPOUND_CID>
53494956

> <PUBCHEM_COMPOUND_CANONICALIZED>
1

> <PUBCHEM_CACTVS_COMPLEXITY>
805

> <PUBCHEM_CACTVS_HBOND_ACCEPTOR>
13

> <PUBCHEM_CACTVS_HBOND_DONOR>
6

> <PUBCHEM_CACTVS_ROTATABLE_BOND>
8

> <PUBCHEM_CACTVS_SUBSKEYS>
AAADcfB4PAAAAAAAAAAAAAAAAAAAASJAAAA0YIAAAAASAAABQAAAGgAACAAADRSwmAMyDoAABgCAAiBCAAACCAAgIAAAiAAGiIgdNyKGMRqieCOlwBUPuAfA4PwOoAABCAAAQABAAAIQAACAAAAAAAAAAA==

> <PUBCHEM_IUPAC_OPENEYE_NAME>
(2R,3S,4R,5R,6S)-2-[5-[(3R,3aS,6S,6aS)-3-(4-hydroxy-3,5-dimethoxy-phenyl)-1,3,3a,4,6,6a-hexahydrofuro[3,4-c]furan-6-yl]-2-hydroxy-3-methoxy-phenoxy]-6-(hydroxymethyl)tetrahydropyran-3,4,5-triol

> <PUBCHEM_IUPAC_CAS_NAME>
(2R,3S,4R,5R,6S)-2-[5-[(3R,3aS,6S,6aS)-3-(4-hydroxy-3,5-dimethoxyphenyl)-1,3,3a,4,6,6a-hexahydrofuro[3,4-c]furan-6-yl]-2-hydroxy-3-methoxyphenoxy]-6-(hydroxymethyl)oxane-3,4,5-triol

> <PUBCHEM_IUPAC_NAME_MARKUP>
(2<I>R</I>,3<I>S</I>,4<I>R</I>,5<I>R</I>,6<I>S</I>)-2-[5-[(3<I>R</I>,3<I>a</I><I>S</I>,6<I>S</I>,6<I>a</I><I>S</I>)-3-(4-hydroxy-3,5-dimethoxyphenyl)-1,3,3<I>a</I>,4,6,6<I>a</I>-hexahydrofuro[3,4-c]furan-6-yl]-2-hydroxy-3-methoxyphenoxy]-6-(hydroxymethyl)oxane-3,4,5-triol

> <PUBCHEM_IUPAC_NAME>
(2R,3S,4R,5R,6S)-2-[5-[(3R,3aS,6S,6aS)-3-(4-hydroxy-3,5-dimethoxyphenyl)-1,3,3a,4,6,6a-hexahydrofuro[3,4-c]furan-6-yl]-2-hydroxy-3-methoxyphenoxy]-6-(hydroxymethyl)oxane-3,4,5-triol

> <PUBCHEM_IUPAC_SYSTEMATIC_NAME>
(2R,3S,4R,5R,6S)-2-[5-[(3R,3aS,6S,6aS)-3-(3,5-dimethoxy-4-oxidanyl-phenyl)-1,3,3a,4,6,6a-hexahydrofuro[3,4-c]furan-6-yl]-3-methoxy-2-oxidanyl-phenoxy]-6-(hydroxymethyl)oxane-3,4,5-triol

> <PUBCHEM_IUPAC_TRADITIONAL_NAME>
(2R,3S,4R,5R,6S)-2-[5-[(3R,3aS,6S,6aS)-3-(4-hydroxy-3,5-dimethoxy-phenyl)-1,3,3a,4,6,6a-hexahydrofuro[3,4-c]furan-6-yl]-2-hydroxy-3-methoxy-phenoxy]-6-methylol-tetrahydropyran-3,4,5-triol

> <PUBCHEM_IUPAC_INCHI>
InChI=1S/C27H34O13/c1-34-15-4-11(5-16(35-2)20(15)29)25-13-9-38-26(14(13)10-37-25)12-6-17(36-3)21(30)18(7-12)39-27-24(33)23(32)22(31)19(8-28)40-27/h4-7,13-14,19,22-33H,8-10H2,1-3H3/t13-,14-,19+,22+,23-,24+,25+,26-,27+/m1/s1

> <PUBCHEM_IUPAC_INCHIKEY>
JISXSRGUWGWCMC-PCEIVLSASA-N

> <PUBCHEM_XLOGP3_AA>
0.1

> <PUBCHEM_EXACT_MASS>
566.19994113

> <PUBCHEM_MOLECULAR_FORMULA>
C27H34O13

> <PUBCHEM_MOLECULAR_WEIGHT>
566.5

> <PUBCHEM_OPENEYE_CAN_SMILES>
COC1=CC(=CC(=C1O)OC)C2C3COC(C3CO2)C4=CC(=C(C(=C4)OC5C(C(C(C(O5)CO)O)O)O)O)OC

> <PUBCHEM_OPENEYE_ISO_SMILES>
COC1=CC(=CC(=C1O)OC)[C@H]2[C@@H]3CO[C@@H]([C@@H]3CO2)C4=CC(=C(C(=C4)O[C@@H]5[C@H]([C@@H]([C@H]([C@@H](O5)CO)O)O)O)O)OC

> <PUBCHEM_CACTVS_TPSA>
186

> <PUBCHEM_MONOISOTOPIC_WEIGHT>
566.19994113

> <PUBCHEM_TOTAL_CHARGE>
0

> <PUBCHEM_HEAVY_ATOM_COUNT>
40

> <PUBCHEM_ATOM_DEF_STEREO_COUNT>
9

> <PUBCHEM_ATOM_UDEF_STEREO_COUNT>
0

> <PUBCHEM_BOND_DEF_STEREO_COUNT>
0

> <PUBCHEM_BOND_UDEF_STEREO_COUNT>
0

> <PUBCHEM_ISOTOPIC_ATOM_COUNT>
0

> <PUBCHEM_COMPONENT_COUNT>
1

> <PUBCHEM_CACTVS_TAUTO_COUNT>
-1

> <PUBCHEM_COORDINATE_TYPE>
1
5
255

> <PUBCHEM_BONDANNOTATIONS>
33  10  5
14  41  6
15  42  6
16  20  5
17  21  6
20  22  8
20  23  8
21  24  8
21  25  8
22  26  8
23  27  8
24  32  8
25  31  8
26  34  8
27  34  8
28  3  6
31  36  8
32  36  8
35  37  6
29  8  5
30  9  6

$$$$
