 
  -OEChem-10192104452D

 87 90  0     1  0  0  0  0  0999 V2000
    6.8671   -1.0000    0.0000 O   0  0  0  0  0  0  0  0  0  0  0  0
    6.0010   -2.5000    0.0000 O   0  0  0  0  0  0  0  0  0  0  0  0
    5.1350    1.0000    0.0000 O   0  0  0  0  0  0  0  0  0  0  0  0
    8.5991   -2.0000    0.0000 O   0  0  0  0  0  0  0  0  0  0  0  0
    6.8671    1.0000    0.0000 O   0  0  0  0  0  0  0  0  0  0  0  0
    9.4651   -3.5000    0.0000 O   0  0  0  0  0  0  0  0  0  0  0  0
    6.0010    3.5000    0.0000 O   0  0  0  0  0  0  0  0  0  0  0  0
    5.1350   -2.0000    0.0000 O   0  0  0  0  0  0  0  0  0  0  0  0
    8.5991   -4.0000    0.0000 O   0  0  0  0  0  0  0  0  0  0  0  0
    3.4030   -1.0000    0.0000 O   0  0  0  0  0  0  0  0  0  0  0  0
    6.8671   -5.0000    0.0000 O   0  0  0  0  0  0  0  0  0  0  0  0
    8.5991    2.0000    0.0000 O   0  0  0  0  0  0  0  0  0  0  0  0
   10.3312   -1.0000    0.0000 O   0  0  0  0  0  0  0  0  0  0  0  0
   12.0632   -2.0000    0.0000 O   0  0  0  0  0  0  0  0  0  0  0  0
    8.5991    4.0000    0.0000 O   0  0  0  0  0  0  0  0  0  0  0  0
   12.0632   -4.0000    0.0000 O   0  0  0  0  0  0  0  0  0  0  0  0
    5.1350    2.0000    0.0000 O   0  0  0  0  0  0  0  0  0  0  0  0
    4.2690   -3.5000    0.0000 O   0  0  0  0  0  0  0  0  0  0  0  0
    2.5369    0.5000    0.0000 O   0  0  0  0  0  0  0  0  0  0  0  0
    9.4651   -5.5000    0.0000 O   0  0  0  0  0  0  0  0  0  0  0  0
    6.0010    5.5000    0.0000 O   0  0  0  0  0  0  0  0  0  0  0  0
    6.0010   -0.5000    0.0000 C   0  0  1  0  0  0  0  0  0  0  0  0
    7.7331   -2.5000    0.0000 C   0  0  2  0  0  0  0  0  0  0  0  0
    6.8671   -2.0000    0.0000 C   0  0  2  0  0  0  0  0  0  0  0  0
    5.1350   -1.0000    0.0000 C   0  0  2  0  0  0  0  0  0  0  0  0
    6.0010    0.5000    0.0000 C   0  0  1  0  0  0  0  0  0  0  0  0
    7.7331   -3.5000    0.0000 C   0  0  2  0  0  0  0  0  0  0  0  0
    4.2690   -0.5000    0.0000 C   0  0  1  0  0  0  0  0  0  0  0  0
    6.8671   -4.0000    0.0000 C   0  0  1  0  0  0  0  0  0  0  0  0
    6.0010   -3.5000    0.0000 C   0  0  1  0  0  0  0  0  0  0  0  0
    4.2690    0.5000    0.0000 C   0  0  1  0  0  0  0  0  0  0  0  0
    6.8671    2.0000    0.0000 C   0  0  1  0  0  0  0  0  0  0  0  0
    9.4651   -2.5000    0.0000 C   0  0  2  0  0  0  0  0  0  0  0  0
    7.7331    2.5000    0.0000 C   0  0  2  0  0  0  0  0  0  0  0  0
   10.3312   -2.0000    0.0000 C   0  0  2  0  0  0  0  0  0  0  0  0
   11.1972   -2.5000    0.0000 C   0  0  2  0  0  0  0  0  0  0  0  0
    7.7331    3.5000    0.0000 C   0  0  1  0  0  0  0  0  0  0  0  0
   11.1972   -3.5000    0.0000 C   0  0  1  0  0  0  0  0  0  0  0  0
    6.0010    2.5000    0.0000 C   0  0  3  0  0  0  0  0  0  0  0  0
   10.3312   -4.0000    0.0000 C   0  0  1  0  0  0  0  0  0  0  0  0
    6.8671    4.0000    0.0000 C   0  0  1  0  0  0  0  0  0  0  0  0
    5.1350   -4.0000    0.0000 C   0  0  0  0  0  0  0  0  0  0  0  0
    3.4030    1.0000    0.0000 C   0  0  0  0  0  0  0  0  0  0  0  0
   10.3312   -5.0000    0.0000 C   0  0  0  0  0  0  0  0  0  0  0  0
    6.8671    5.0000    0.0000 C   0  0  0  0  0  0  0  0  0  0  0  0
    6.0010   -1.1200    0.0000 H   0  0  0  0  0  0  0  0  0  0  0  0
    8.2700   -2.8100    0.0000 H   0  0  0  0  0  0  0  0  0  0  0  0
    7.4040   -1.6900    0.0000 H   0  0  0  0  0  0  0  0  0  0  0  0
    4.5981   -1.3100    0.0000 H   0  0  0  0  0  0  0  0  0  0  0  0
    6.0010    1.1200    0.0000 H   0  0  0  0  0  0  0  0  0  0  0  0
    7.7331   -4.1200    0.0000 H   0  0  0  0  0  0  0  0  0  0  0  0
    4.2690   -1.1200    0.0000 H   0  0  0  0  0  0  0  0  0  0  0  0
    7.4040   -4.3100    0.0000 H   0  0  0  0  0  0  0  0  0  0  0  0
    5.4641   -3.1900    0.0000 H   0  0  0  0  0  0  0  0  0  0  0  0
    4.2690    1.1200    0.0000 H   0  0  0  0  0  0  0  0  0  0  0  0
    7.4040    1.6900    0.0000 H   0  0  0  0  0  0  0  0  0  0  0  0
    9.4651   -1.8800    0.0000 H   0  0  0  0  0  0  0  0  0  0  0  0
    7.7331    1.8800    0.0000 H   0  0  0  0  0  0  0  0  0  0  0  0
   10.8681   -1.6900    0.0000 H   0  0  0  0  0  0  0  0  0  0  0  0
   11.1972   -1.8800    0.0000 H   0  0  0  0  0  0  0  0  0  0  0  0
    8.2700    3.1900    0.0000 H   0  0  0  0  0  0  0  0  0  0  0  0
   11.7341   -3.1900    0.0000 H   0  0  0  0  0  0  0  0  0  0  0  0
    6.0010    1.8800    0.0000 H   0  0  0  0  0  0  0  0  0  0  0  0
    9.7942   -4.3100    0.0000 H   0  0  0  0  0  0  0  0  0  0  0  0
    6.3301    4.3100    0.0000 H   0  0  0  0  0  0  0  0  0  0  0  0
    4.7365   -4.4750    0.0000 H   0  0  0  0  0  0  0  0  0  0  0  0
    5.5335   -4.4750    0.0000 H   0  0  0  0  0  0  0  0  0  0  0  0
    3.8015    1.4750    0.0000 H   0  0  0  0  0  0  0  0  0  0  0  0
    3.0044    1.4750    0.0000 H   0  0  0  0  0  0  0  0  0  0  0  0
    4.5981   -2.3100    0.0000 H   0  0  0  0  0  0  0  0  0  0  0  0
    8.5991   -4.6200    0.0000 H   0  0  0  0  0  0  0  0  0  0  0  0
    3.4030   -1.6200    0.0000 H   0  0  0  0  0  0  0  0  0  0  0  0
    6.3301   -5.3100    0.0000 H   0  0  0  0  0  0  0  0  0  0  0  0
   10.5432   -5.5826    0.0000 H   0  0  0  0  0  0  0  0  0  0  0  0
   10.9417   -4.8923    0.0000 H   0  0  0  0  0  0  0  0  0  0  0  0
    7.4776    4.8923    0.0000 H   0  0  0  0  0  0  0  0  0  0  0  0
    7.0791    5.5826    0.0000 H   0  0  0  0  0  0  0  0  0  0  0  0
    9.1360    2.3100    0.0000 H   0  0  0  0  0  0  0  0  0  0  0  0
   10.8681   -0.6900    0.0000 H   0  0  0  0  0  0  0  0  0  0  0  0
   12.0632   -1.3800    0.0000 H   0  0  0  0  0  0  0  0  0  0  0  0
    8.5991    4.6200    0.0000 H   0  0  0  0  0  0  0  0  0  0  0  0
   12.0632   -4.6200    0.0000 H   0  0  0  0  0  0  0  0  0  0  0  0
    4.5981    2.3100    0.0000 H   0  0  0  0  0  0  0  0  0  0  0  0
    3.7320   -3.8100    0.0000 H   0  0  0  0  0  0  0  0  0  0  0  0
    2.0000    0.8100    0.0000 H   0  0  0  0  0  0  0  0  0  0  0  0
    9.4651   -6.1200    0.0000 H   0  0  0  0  0  0  0  0  0  0  0  0
    6.0010    6.1200    0.0000 H   0  0  0  0  0  0  0  0  0  0  0  0
 22  1  1  1  0  0  0
 24  1  1  1  0  0  0
  2 24  1  0  0  0  0
  2 30  1  0  0  0  0
  3 26  1  0  0  0  0
  3 31  1  0  0  0  0
 23  4  1  1  0  0  0
 33  4  1  1  0  0  0
 26  5  1  1  0  0  0
 32  5  1  6  0  0  0
  6 33  1  0  0  0  0
  6 40  1  0  0  0  0
  7 39  1  0  0  0  0
  7 41  1  0  0  0  0
 25  8  1  1  0  0  0
  8 70  1  0  0  0  0
 27  9  1  1  0  0  0
  9 71  1  0  0  0  0
 28 10  1  6  0  0  0
 10 72  1  0  0  0  0
 29 11  1  6  0  0  0
 11 73  1  0  0  0  0
 34 12  1  6  0  0  0
 12 78  1  0  0  0  0
 35 13  1  1  0  0  0
 13 79  1  0  0  0  0
 36 14  1  1  0  0  0
 14 80  1  0  0  0  0
 37 15  1  1  0  0  0
 15 81  1  0  0  0  0
 38 16  1  6  0  0  0
 16 82  1  0  0  0  0
 17 39  1  0  0  0  0
 17 83  1  0  0  0  0
 18 42  1  0  0  0  0
 18 84  1  0  0  0  0
 19 43  1  0  0  0  0
 19 85  1  0  0  0  0
 20 44  1  0  0  0  0
 20 86  1  0  0  0  0
 21 45  1  0  0  0  0
 21 87  1  0  0  0  0
 22 25  1  0  0  0  0
 22 26  1  0  0  0  0
 22 46  1  0  0  0  0
 23 24  1  0  0  0  0
 23 27  1  0  0  0  0
 23 47  1  0  0  0  0
 24 48  1  0  0  0  0
 25 28  1  0  0  0  0
 25 49  1  0  0  0  0
 26 50  1  0  0  0  0
 27 29  1  0  0  0  0
 27 51  1  0  0  0  0
 28 31  1  0  0  0  0
 28 52  1  0  0  0  0
 29 30  1  0  0  0  0
 29 53  1  0  0  0  0
 30 42  1  1  0  0  0
 30 54  1  0  0  0  0
 31 43  1  1  0  0  0
 31 55  1  0  0  0  0
 32 34  1  0  0  0  0
 32 39  1  0  0  0  0
 32 56  1  0  0  0  0
 33 35  1  0  0  0  0
 33 57  1  0  0  0  0
 34 37  1  0  0  0  0
 34 58  1  0  0  0  0
 35 36  1  0  0  0  0
 35 59  1  0  0  0  0
 36 38  1  0  0  0  0
 36 60  1  0  0  0  0
 37 41  1  0  0  0  0
 37 61  1  0  0  0  0
 38 40  1  0  0  0  0
 38 62  1  0  0  0  0
 39 63  1  0  0  0  0
 40 44  1  1  0  0  0
 40 64  1  0  0  0  0
 41 45  1  6  0  0  0
 41 65  1  0  0  0  0
 42 66  1  0  0  0  0
 42 67  1  0  0  0  0
 43 68  1  0  0  0  0
 43 69  1  0  0  0  0
 44 74  1  0  0  0  0
 44 75  1  0  0  0  0
 45 76  1  0  0  0  0
 45 77  1  0  0  0  0
M  END
> <PUBCHEM_COMPOUND_CID>
9961363

> <PUBCHEM_COMPOUND_CANONICALIZED>
1

> <PUBCHEM_CACTVS_COMPLEXITY>
918

> <PUBCHEM_CACTVS_HBOND_ACCEPTOR>
21

> <PUBCHEM_CACTVS_HBOND_DONOR>
14

> <PUBCHEM_CACTVS_ROTATABLE_BOND>
10

> <PUBCHEM_CACTVS_SUBSKEYS>
AAADcfB4PgAAAAAAAAAAAAAAAAAAAAAAAAAkSJEgAAAAAAAAAAAAGgAACAAACBSwgAMACAAABgAAAAAAAAAAAAAAAAAAAAAAAAAREAIAAAAiQAAFAAAHAAHAYAwAAAAAAAAAAAAAAAAAAAAAAAAAAAAAAA==

> <PUBCHEM_IUPAC_OPENEYE_NAME>
(3S,4S,5S,6R)-3-[(2S,3S,4S,5S,6R)-3-[(2S,3S,4S,5S,6R)-4,5-dihydroxy-6-(hydroxymethyl)-3-[(2S,3S,4S,5S,6R)-3,4,5-trihydroxy-6-(hydroxymethyl)tetrahydropyran-2-yl]oxy-tetrahydropyran-2-yl]oxy-4,5-dihydroxy-6-(hydroxymethyl)tetrahydropyran-2-yl]oxy-6-(hydroxymethyl)tetrahydropyran-2,4,5-triol

> <PUBCHEM_IUPAC_CAS_NAME>
(3S,4S,5S,6R)-3-[[(2S,3S,4S,5S,6R)-3-[[(2S,3S,4S,5S,6R)-4,5-dihydroxy-6-(hydroxymethyl)-3-[[(2S,3S,4S,5S,6R)-3,4,5-trihydroxy-6-(hydroxymethyl)-2-oxanyl]oxy]-2-oxanyl]oxy]-4,5-dihydroxy-6-(hydroxymethyl)-2-oxanyl]oxy]-6-(hydroxymethyl)oxane-2,4,5-triol

> <PUBCHEM_IUPAC_NAME_MARKUP>
(3<I>S</I>,4<I>S</I>,5<I>S</I>,6<I>R</I>)-3-[(2<I>S</I>,3<I>S</I>,4<I>S</I>,5<I>S</I>,6<I>R</I>)-3-[(2<I>S</I>,3<I>S</I>,4<I>S</I>,5<I>S</I>,6<I>R</I>)-4,5-dihydroxy-6-(hydroxymethyl)-3-[(2<I>S</I>,3<I>S</I>,4<I>S</I>,5<I>S</I>,6<I>R</I>)-3,4,5-trihydroxy-6-(hydroxymethyl)oxan-2-yl]oxyoxan-2-yl]oxy-4,5-dihydroxy-6-(hydroxymethyl)oxan-2-yl]oxy-6-(hydroxymethyl)oxane-2,4,5-triol

> <PUBCHEM_IUPAC_NAME>
(3S,4S,5S,6R)-3-[(2S,3S,4S,5S,6R)-3-[(2S,3S,4S,5S,6R)-4,5-dihydroxy-6-(hydroxymethyl)-3-[(2S,3S,4S,5S,6R)-3,4,5-trihydroxy-6-(hydroxymethyl)oxan-2-yl]oxyoxan-2-yl]oxy-4,5-dihydroxy-6-(hydroxymethyl)oxan-2-yl]oxy-6-(hydroxymethyl)oxane-2,4,5-triol

> <PUBCHEM_IUPAC_SYSTEMATIC_NAME>
(3S,4S,5S,6R)-6-(hydroxymethyl)-3-[(2S,3S,4S,5S,6R)-6-(hydroxymethyl)-3-[(2S,3S,4S,5S,6R)-6-(hydroxymethyl)-3-[(2S,3S,4S,5S,6R)-6-(hydroxymethyl)-3,4,5-tris(oxidanyl)oxan-2-yl]oxy-4,5-bis(oxidanyl)oxan-2-yl]oxy-4,5-bis(oxidanyl)oxan-2-yl]oxy-oxane-2,4,5-triol

> <PUBCHEM_IUPAC_TRADITIONAL_NAME>
(3S,4S,5S,6R)-3-[(2S,3S,4S,5S,6R)-3-[(2S,3S,4S,5S,6R)-4,5-dihydroxy-6-methylol-3-[(2S,3S,4S,5S,6R)-3,4,5-trihydroxy-6-methylol-tetrahydropyran-2-yl]oxy-tetrahydropyran-2-yl]oxy-4,5-dihydroxy-6-methylol-tetrahydropyran-2-yl]oxy-6-methylol-tetrahydropyran-2,4,5-triol

> <PUBCHEM_IUPAC_INCHI>
InChI=1S/C24H42O21/c25-1-5-10(30)14(34)18(21(38)39-5)43-23-20(16(36)12(32)7(3-27)41-23)45-24-19(15(35)11(31)8(4-28)42-24)44-22-17(37)13(33)9(29)6(2-26)40-22/h5-38H,1-4H2/t5-,6-,7-,8-,9-,10-,11-,12-,13+,14+,15+,16+,17+,18+,19+,20+,21?,22+,23+,24+/m1/s1

> <PUBCHEM_IUPAC_INCHIKEY>
RVKKLZMEZUGKOE-JCFPIJKISA-N

> <PUBCHEM_XLOGP3_AA>
-7.4

> <PUBCHEM_EXACT_MASS>
666.22185834

> <PUBCHEM_MOLECULAR_FORMULA>
C24H42O21

> <PUBCHEM_MOLECULAR_WEIGHT>
666.6

> <PUBCHEM_OPENEYE_CAN_SMILES>
C(C1C(C(C(C(O1)O)OC2C(C(C(C(O2)CO)O)O)OC3C(C(C(C(O3)CO)O)O)OC4C(C(C(C(O4)CO)O)O)O)O)O)O

> <PUBCHEM_OPENEYE_ISO_SMILES>
C([C@@H]1[C@H]([C@@H]([C@@H]([C@@H](O1)O[C@H]2[C@H]([C@@H]([C@H](O[C@H]2O[C@H]3[C@H]([C@@H]([C@H](O[C@H]3O[C@H]4[C@H]([C@@H]([C@H](OC4O)CO)O)O)CO)O)O)CO)O)O)O)O)O)O

> <PUBCHEM_CACTVS_TPSA>
348

> <PUBCHEM_MONOISOTOPIC_WEIGHT>
666.22185834

> <PUBCHEM_TOTAL_CHARGE>
0

> <PUBCHEM_HEAVY_ATOM_COUNT>
45

> <PUBCHEM_ATOM_DEF_STEREO_COUNT>
19

> <PUBCHEM_ATOM_UDEF_STEREO_COUNT>
1

> <PUBCHEM_BOND_DEF_STEREO_COUNT>
0

> <PUBCHEM_BOND_UDEF_STEREO_COUNT>
0

> <PUBCHEM_ISOTOPIC_ATOM_COUNT>
0

> <PUBCHEM_COMPONENT_COUNT>
1

> <PUBCHEM_CACTVS_TAUTO_COUNT>
-1

> <PUBCHEM_COORDINATE_TYPE>
1
5
255

> <PUBCHEM_BONDANNOTATIONS>
22  1  5
24  1  5
28  10  6
29  11  6
34  12  6
35  13  5
36  14  5
37  15  5
38  16  6
39  17  3
30  42  5
31  43  5
23  4  5
33  4  5
40  44  5
41  45  6
26  5  5
32  5  6
25  8  5
27  9  5

$$$$
