 
  -OEChem-10192103322D

 50 51  0     0  0  0  0  0  0999 V2000
    8.0000    2.5670    0.0000 O   0  0  0  0  0  0  0  0  0  0  0  0
    7.3660    3.2010    0.0000 O   0  0  0  0  0  0  0  0  0  0  0  0
    8.0000    0.8349    0.0000 O   0  0  0  0  0  0  0  0  0  0  0  0
    5.6340    3.2010    0.0000 O   0  0  0  0  0  0  0  0  0  0  0  0
    6.5000   -2.2990    0.0000 O   0  0  0  0  0  0  0  0  0  0  0  0
    6.5000    1.7010    0.0000 C   0  0  0  0  0  0  0  0  0  0  0  0
    5.5000    1.7010    0.0000 C   0  0  0  0  0  0  0  0  0  0  0  0
    5.0000    2.5670    0.0000 C   0  0  0  0  0  0  0  0  0  0  0  0
    4.0000    2.5670    0.0000 C   0  0  0  0  0  0  0  0  0  0  0  0
    6.5000    0.7010    0.0000 C   0  0  0  0  0  0  0  0  0  0  0  0
    3.5000    3.4330    0.0000 C   0  0  0  0  0  0  0  0  0  0  0  0
    7.5000    1.7010    0.0000 C   0  0  0  0  0  0  0  0  0  0  0  0
    6.5000    2.7010    0.0000 C   0  0  0  0  0  0  0  0  0  0  0  0
    2.5000    3.4330    0.0000 C   0  0  0  0  0  0  0  0  0  0  0  0
    5.6340    0.2010    0.0000 C   0  0  0  0  0  0  0  0  0  0  0  0
    7.3660    0.2010    0.0000 C   0  0  0  0  0  0  0  0  0  0  0  0
    2.0000    4.2990    0.0000 C   0  0  0  0  0  0  0  0  0  0  0  0
    5.6340   -0.7990    0.0000 C   0  0  0  0  0  0  0  0  0  0  0  0
    7.3660   -0.7990    0.0000 C   0  0  0  0  0  0  0  0  0  0  0  0
    6.5000   -1.2990    0.0000 C   0  0  0  0  0  0  0  0  0  0  0  0
    5.6340   -2.7990    0.0000 C   0  0  0  0  0  0  0  0  0  0  0  0
    4.7680   -2.2990    0.0000 C   0  0  0  0  0  0  0  0  0  0  0  0
    5.6340   -3.7990    0.0000 C   0  0  0  0  0  0  0  0  0  0  0  0
    3.9019   -2.7990    0.0000 C   0  0  0  0  0  0  0  0  0  0  0  0
    4.7680   -4.2990    0.0000 C   0  0  0  0  0  0  0  0  0  0  0  0
    3.9019   -3.7990    0.0000 C   0  0  0  0  0  0  0  0  0  0  0  0
    4.9174    1.4889    0.0000 H   0  0  0  0  0  0  0  0  0  0  0  0
    5.6077    1.0904    0.0000 H   0  0  0  0  0  0  0  0  0  0  0  0
    5.5826    2.7790    0.0000 H   0  0  0  0  0  0  0  0  0  0  0  0
    4.8923    3.1776    0.0000 H   0  0  0  0  0  0  0  0  0  0  0  0
    3.4174    2.3549    0.0000 H   0  0  0  0  0  0  0  0  0  0  0  0
    4.1077    1.9564    0.0000 H   0  0  0  0  0  0  0  0  0  0  0  0
    4.0826    3.6451    0.0000 H   0  0  0  0  0  0  0  0  0  0  0  0
    3.3923    4.0436    0.0000 H   0  0  0  0  0  0  0  0  0  0  0  0
    1.9174    3.2210    0.0000 H   0  0  0  0  0  0  0  0  0  0  0  0
    2.6077    2.8224    0.0000 H   0  0  0  0  0  0  0  0  0  0  0  0
    5.0970    0.5110    0.0000 H   0  0  0  0  0  0  0  0  0  0  0  0
    7.9030    0.5110    0.0000 H   0  0  0  0  0  0  0  0  0  0  0  0
    2.5369    4.6090    0.0000 H   0  0  0  0  0  0  0  0  0  0  0  0
    1.6900    4.8360    0.0000 H   0  0  0  0  0  0  0  0  0  0  0  0
    1.4631    3.9890    0.0000 H   0  0  0  0  0  0  0  0  0  0  0  0
    5.0970   -1.1090    0.0000 H   0  0  0  0  0  0  0  0  0  0  0  0
    7.9030   -1.1090    0.0000 H   0  0  0  0  0  0  0  0  0  0  0  0
    8.6200    2.5670    0.0000 H   0  0  0  0  0  0  0  0  0  0  0  0
    7.3660    3.8210    0.0000 H   0  0  0  0  0  0  0  0  0  0  0  0
    4.7680   -1.6790    0.0000 H   0  0  0  0  0  0  0  0  0  0  0  0
    6.1709   -4.1090    0.0000 H   0  0  0  0  0  0  0  0  0  0  0  0
    3.3650   -2.4890    0.0000 H   0  0  0  0  0  0  0  0  0  0  0  0
    4.7680   -4.9190    0.0000 H   0  0  0  0  0  0  0  0  0  0  0  0
    3.3650   -4.1090    0.0000 H   0  0  0  0  0  0  0  0  0  0  0  0
  1 12  1  0  0  0  0
  1 44  1  0  0  0  0
  2 13  1  0  0  0  0
  2 45  1  0  0  0  0
  3 12  2  0  0  0  0
  4 13  2  0  0  0  0
  5 20  1  0  0  0  0
  5 21  1  0  0  0  0
  6  7  1  0  0  0  0
  6 10  1  0  0  0  0
  6 12  1  0  0  0  0
  6 13  1  0  0  0  0
  7  8  1  0  0  0  0
  7 27  1  0  0  0  0
  7 28  1  0  0  0  0
  8  9  1  0  0  0  0
  8 29  1  0  0  0  0
  8 30  1  0  0  0  0
  9 11  1  0  0  0  0
  9 31  1  0  0  0  0
  9 32  1  0  0  0  0
 10 15  2  0  0  0  0
 10 16  1  0  0  0  0
 11 14  1  0  0  0  0
 11 33  1  0  0  0  0
 11 34  1  0  0  0  0
 14 17  1  0  0  0  0
 14 35  1  0  0  0  0
 14 36  1  0  0  0  0
 15 18  1  0  0  0  0
 15 37  1  0  0  0  0
 16 19  2  0  0  0  0
 16 38  1  0  0  0  0
 17 39  1  0  0  0  0
 17 40  1  0  0  0  0
 17 41  1  0  0  0  0
 18 20  2  0  0  0  0
 18 42  1  0  0  0  0
 19 20  1  0  0  0  0
 19 43  1  0  0  0  0
 21 22  2  0  0  0  0
 21 23  1  0  0  0  0
 22 24  1  0  0  0  0
 22 46  1  0  0  0  0
 23 25  2  0  0  0  0
 23 47  1  0  0  0  0
 24 26  2  0  0  0  0
 24 48  1  0  0  0  0
 25 26  1  0  0  0  0
 25 49  1  0  0  0  0
 26 50  1  0  0  0  0
M  END
> <PUBCHEM_COMPOUND_CID>
69905041

> <PUBCHEM_COMPOUND_CANONICALIZED>
1

> <PUBCHEM_CACTVS_COMPLEXITY>
433

> <PUBCHEM_CACTVS_HBOND_ACCEPTOR>
5

> <PUBCHEM_CACTVS_HBOND_DONOR>
2

> <PUBCHEM_CACTVS_ROTATABLE_BOND>
10

> <PUBCHEM_CACTVS_SUBSKEYS>
AAADceB4OAAAAAAAAAAAAAAAAAAAAAAAAAAwYAAAAAAAAAABQAAAGgAACAAADgSAmAAyDoAABgCIAiDSCAACCAAgIAAIiAEGCIgMJjaMNRqCeCCl4BEIqAeIyPCPoAAAAAAAAABAAAAAAAAAAAAAAAAAAA==

> <PUBCHEM_IUPAC_OPENEYE_NAME>
2-hexyl-2-(4-phenoxyphenyl)propanedioic acid

> <PUBCHEM_IUPAC_CAS_NAME>
2-hexyl-2-(4-phenoxyphenyl)propanedioic acid

> <PUBCHEM_IUPAC_NAME_MARKUP>
2-hexyl-2-(4-phenoxyphenyl)propanedioic acid

> <PUBCHEM_IUPAC_NAME>
2-hexyl-2-(4-phenoxyphenyl)propanedioic acid

> <PUBCHEM_IUPAC_SYSTEMATIC_NAME>
2-hexyl-2-(4-phenoxyphenyl)propanedioic acid

> <PUBCHEM_IUPAC_TRADITIONAL_NAME>
2-hexyl-2-(4-phenoxyphenyl)malonic acid

> <PUBCHEM_IUPAC_INCHI>
InChI=1S/C21H24O5/c1-2-3-4-8-15-21(19(22)23,20(24)25)16-11-13-18(14-12-16)26-17-9-6-5-7-10-17/h5-7,9-14H,2-4,8,15H2,1H3,(H,22,23)(H,24,25)

> <PUBCHEM_IUPAC_INCHIKEY>
HJZVWISPIXXUEL-UHFFFAOYSA-N

> <PUBCHEM_XLOGP3_AA>
5.6

> <PUBCHEM_EXACT_MASS>
356.16237386

> <PUBCHEM_MOLECULAR_FORMULA>
C21H24O5

> <PUBCHEM_MOLECULAR_WEIGHT>
356.4

> <PUBCHEM_OPENEYE_CAN_SMILES>
CCCCCCC(C1=CC=C(C=C1)OC2=CC=CC=C2)(C(=O)O)C(=O)O

> <PUBCHEM_OPENEYE_ISO_SMILES>
CCCCCCC(C1=CC=C(C=C1)OC2=CC=CC=C2)(C(=O)O)C(=O)O

> <PUBCHEM_CACTVS_TPSA>
83.8

> <PUBCHEM_MONOISOTOPIC_WEIGHT>
356.16237386

> <PUBCHEM_TOTAL_CHARGE>
0

> <PUBCHEM_HEAVY_ATOM_COUNT>
26

> <PUBCHEM_ATOM_DEF_STEREO_COUNT>
0

> <PUBCHEM_ATOM_UDEF_STEREO_COUNT>
0

> <PUBCHEM_BOND_DEF_STEREO_COUNT>
0

> <PUBCHEM_BOND_UDEF_STEREO_COUNT>
0

> <PUBCHEM_ISOTOPIC_ATOM_COUNT>
0

> <PUBCHEM_COMPONENT_COUNT>
1

> <PUBCHEM_CACTVS_TAUTO_COUNT>
-1

> <PUBCHEM_COORDINATE_TYPE>
1
5
255

> <PUBCHEM_BONDANNOTATIONS>
10  15  8
10  16  8
15  18  8
16  19  8
18  20  8
19  20  8
21  22  8
21  23  8
22  24  8
23  25  8
24  26  8
25  26  8

$$$$
