 
  -OEChem-10192103522D

 84 86  0     1  0  0  0  0  0999 V2000
    7.9497   -0.5950    0.0000 O   0  0  0  0  0  0  0  0  0  0  0  0
    9.6818   -2.5950    0.0000 O   0  0  0  0  0  0  0  0  0  0  0  0
   10.5478   -1.0950    0.0000 O   0  0  0  0  0  0  0  0  0  0  0  0
    6.2177    0.4050    0.0000 O   0  0  0  0  0  0  0  0  0  0  0  0
    9.6818   -0.5950    0.0000 O   0  0  0  0  0  0  0  0  0  0  0  0
    7.9497   -3.5950    0.0000 O   0  0  0  0  0  0  0  0  0  0  0  0
    4.4381    0.4983    0.0000 O   0  0  0  0  0  0  0  0  0  0  0  0
    6.2177   -2.5950    0.0000 O   0  0  0  0  0  0  0  0  0  0  0  0
   11.4138   -3.5950    0.0000 O   0  0  0  0  0  0  0  0  0  0  0  0
   13.1459   -2.5950    0.0000 O   0  0  0  0  0  0  0  0  0  0  0  0
   13.1459   -0.5950    0.0000 O   0  0  0  0  0  0  0  0  0  0  0  0
    4.4769    3.0856    0.0000 O   0  0  0  0  0  0  0  0  0  0  0  0
    5.9903    2.5686    0.0000 O   0  0  0  0  0  0  0  0  0  0  0  0
    2.5369    2.1074    0.0000 O   0  0  0  0  0  0  0  0  0  0  0  0
   12.2799    0.9050    0.0000 O   0  0  0  0  0  0  0  0  0  0  0  0
    8.8158   -2.0950    0.0000 C   0  0  2  0  0  0  0  0  0  0  0  0
    7.9497   -2.5950    0.0000 C   0  0  2  0  0  0  0  0  0  0  0  0
    7.0837   -2.0950    0.0000 C   0  0  1  0  0  0  0  0  0  0  0  0
    7.0837   -1.0950    0.0000 C   0  0  1  0  0  0  0  0  0  0  0  0
    8.8158   -1.0950    0.0000 C   0  0  1  0  0  0  0  0  0  0  0  0
   10.5478   -2.0950    0.0000 C   0  0  2  0  0  0  0  0  0  0  0  0
   11.4138   -2.5950    0.0000 C   0  0  1  0  0  0  0  0  0  0  0  0
   12.2799   -2.0950    0.0000 C   0  0  2  0  0  0  0  0  0  0  0  0
    6.2177   -0.5950    0.0000 C   0  0  0  0  0  0  0  0  0  0  0  0
   12.2799   -1.0950    0.0000 C   0  0  1  0  0  0  0  0  0  0  0  0
    4.2690    2.1074    0.0000 C   0  0  1  0  0  0  0  0  0  0  0  0
   11.4138   -0.5950    0.0000 C   0  0  1  0  0  0  0  0  0  0  0  0
    5.2471    1.8995    0.0000 C   0  0  2  0  0  0  0  0  0  0  0  0
    5.3517    0.9050    0.0000 C   0  0  2  0  0  0  0  0  0  0  0  0
    3.7690    1.2414    0.0000 C   0  0  0  0  0  0  0  0  0  0  0  0
    9.6818    0.4050    0.0000 C   0  0  2  0  0  0  0  0  0  0  0  0
    3.4030    2.6074    0.0000 C   0  0  0  0  0  0  0  0  0  0  0  0
   11.4138    0.4050    0.0000 C   0  0  0  0  0  0  0  0  0  0  0  0
    8.8158    0.9050    0.0000 C   0  0  0  0  0  0  0  0  0  0  0  0
    8.8158    1.9050    0.0000 C   0  0  0  0  0  0  0  0  0  0  0  0
   10.5478    0.9050    0.0000 C   0  0  0  0  0  0  0  0  0  0  0  0
    7.9497    2.4050    0.0000 C   0  0  0  0  0  0  0  0  0  0  0  0
    7.9497    3.4050    0.0000 C   0  0  0  0  0  0  0  0  0  0  0  0
   10.5478    1.9050    0.0000 C   0  0  0  0  0  0  0  0  0  0  0  0
    8.8158    3.9050    0.0000 C   0  0  0  0  0  0  0  0  0  0  0  0
    8.8158   -2.7150    0.0000 H   0  0  0  0  0  0  0  0  0  0  0  0
    7.4128   -2.9050    0.0000 H   0  0  0  0  0  0  0  0  0  0  0  0
    7.0837   -2.7150    0.0000 H   0  0  0  0  0  0  0  0  0  0  0  0
    7.0837   -0.4750    0.0000 H   0  0  0  0  0  0  0  0  0  0  0  0
    9.3527   -1.4050    0.0000 H   0  0  0  0  0  0  0  0  0  0  0  0
   10.5478   -2.7150    0.0000 H   0  0  0  0  0  0  0  0  0  0  0  0
   11.9508   -2.9050    0.0000 H   0  0  0  0  0  0  0  0  0  0  0  0
   12.2799   -2.7150    0.0000 H   0  0  0  0  0  0  0  0  0  0  0  0
    5.6071   -0.4873    0.0000 H   0  0  0  0  0  0  0  0  0  0  0  0
    6.0056   -1.1776    0.0000 H   0  0  0  0  0  0  0  0  0  0  0  0
   12.8168   -1.4050    0.0000 H   0  0  0  0  0  0  0  0  0  0  0  0
   10.8769   -0.2850    0.0000 H   0  0  0  0  0  0  0  0  0  0  0  0
    5.0867    2.4984    0.0000 H   0  0  0  0  0  0  0  0  0  0  0  0
    5.3192    0.2858    0.0000 H   0  0  0  0  0  0  0  0  0  0  0  0
    3.2674    1.6058    0.0000 H   0  0  0  0  0  0  0  0  0  0  0  0
    3.3541    0.7807    0.0000 H   0  0  0  0  0  0  0  0  0  0  0  0
    7.4128   -3.9050    0.0000 H   0  0  0  0  0  0  0  0  0  0  0  0
    9.1448    0.0950    0.0000 H   0  0  0  0  0  0  0  0  0  0  0  0
    5.6808   -2.2850    0.0000 H   0  0  0  0  0  0  0  0  0  0  0  0
    3.8015    3.0824    0.0000 H   0  0  0  0  0  0  0  0  0  0  0  0
    3.0044    3.0824    0.0000 H   0  0  0  0  0  0  0  0  0  0  0  0
   11.2018    0.9876    0.0000 H   0  0  0  0  0  0  0  0  0  0  0  0
   10.8033    0.2973    0.0000 H   0  0  0  0  0  0  0  0  0  0  0  0
    8.2052    1.0127    0.0000 H   0  0  0  0  0  0  0  0  0  0  0  0
    8.6037    0.3224    0.0000 H   0  0  0  0  0  0  0  0  0  0  0  0
   11.9508   -3.9050    0.0000 H   0  0  0  0  0  0  0  0  0  0  0  0
   13.6828   -2.2850    0.0000 H   0  0  0  0  0  0  0  0  0  0  0  0
   13.6828   -0.9050    0.0000 H   0  0  0  0  0  0  0  0  0  0  0  0
    4.0162    3.5004    0.0000 H   0  0  0  0  0  0  0  0  0  0  0  0
    5.8614    3.1751    0.0000 H   0  0  0  0  0  0  0  0  0  0  0  0
    9.4263    1.7973    0.0000 H   0  0  0  0  0  0  0  0  0  0  0  0
    9.0278    2.4876    0.0000 H   0  0  0  0  0  0  0  0  0  0  0  0
   11.0848    0.5950    0.0000 H   0  0  0  0  0  0  0  0  0  0  0  0
    7.3392    2.5127    0.0000 H   0  0  0  0  0  0  0  0  0  0  0  0
    7.7377    1.8224    0.0000 H   0  0  0  0  0  0  0  0  0  0  0  0
    2.0000    2.4174    0.0000 H   0  0  0  0  0  0  0  0  0  0  0  0
   12.2799    1.5250    0.0000 H   0  0  0  0  0  0  0  0  0  0  0  0
    7.7377    3.9876    0.0000 H   0  0  0  0  0  0  0  0  0  0  0  0
    7.3392    3.2973    0.0000 H   0  0  0  0  0  0  0  0  0  0  0  0
   11.0848    2.2150    0.0000 H   0  0  0  0  0  0  0  0  0  0  0  0
   10.0109    2.2150    0.0000 H   0  0  0  0  0  0  0  0  0  0  0  0
    9.1258    3.3681    0.0000 H   0  0  0  0  0  0  0  0  0  0  0  0
    9.3527    4.2150    0.0000 H   0  0  0  0  0  0  0  0  0  0  0  0
    8.5058    4.4419    0.0000 H   0  0  0  0  0  0  0  0  0  0  0  0
  1 19  1  0  0  0  0
  1 20  1  0  0  0  0
 16  2  1  6  0  0  0
 21  2  1  6  0  0  0
  3 21  1  0  0  0  0
  3 27  1  0  0  0  0
  4 24  1  0  0  0  0
 29  4  1  6  0  0  0
 20  5  1  1  0  0  0
 31  5  1  6  0  0  0
 17  6  1  1  0  0  0
  6 57  1  0  0  0  0
  7 29  1  0  0  0  0
  7 30  1  0  0  0  0
 18  8  1  6  0  0  0
  8 59  1  0  0  0  0
 22  9  1  1  0  0  0
  9 66  1  0  0  0  0
 23 10  1  6  0  0  0
 10 67  1  0  0  0  0
 25 11  1  1  0  0  0
 11 68  1  0  0  0  0
 26 12  1  1  0  0  0
 12 69  1  0  0  0  0
 28 13  1  1  0  0  0
 13 70  1  0  0  0  0
 14 32  1  0  0  0  0
 14 76  1  0  0  0  0
 15 33  1  0  0  0  0
 15 77  1  0  0  0  0
 16 17  1  0  0  0  0
 16 20  1  0  0  0  0
 16 41  1  0  0  0  0
 17 18  1  0  0  0  0
 17 42  1  0  0  0  0
 18 19  1  0  0  0  0
 18 43  1  0  0  0  0
 19 24  1  1  0  0  0
 19 44  1  0  0  0  0
 20 45  1  0  0  0  0
 21 22  1  0  0  0  0
 21 46  1  0  0  0  0
 22 23  1  0  0  0  0
 22 47  1  0  0  0  0
 23 25  1  0  0  0  0
 23 48  1  0  0  0  0
 24 49  1  0  0  0  0
 24 50  1  0  0  0  0
 25 27  1  0  0  0  0
 25 51  1  0  0  0  0
 26 28  1  0  0  0  0
 26 30  1  0  0  0  0
 26 32  1  0  0  0  0
 27 33  1  6  0  0  0
 27 52  1  0  0  0  0
 28 29  1  0  0  0  0
 28 53  1  0  0  0  0
 29 54  1  0  0  0  0
 30 55  1  0  0  0  0
 30 56  1  0  0  0  0
 31 34  1  0  0  0  0
 31 36  1  0  0  0  0
 31 58  1  0  0  0  0
 32 60  1  0  0  0  0
 32 61  1  0  0  0  0
 33 62  1  0  0  0  0
 33 63  1  0  0  0  0
 34 35  1  0  0  0  0
 34 64  1  0  0  0  0
 34 65  1  0  0  0  0
 35 37  1  0  0  0  0
 35 71  1  0  0  0  0
 35 72  1  0  0  0  0
 36 39  2  0  0  0  0
 36 73  1  0  0  0  0
 37 38  1  0  0  0  0
 37 74  1  0  0  0  0
 37 75  1  0  0  0  0
 38 40  1  0  0  0  0
 38 78  1  0  0  0  0
 38 79  1  0  0  0  0
 39 80  1  0  0  0  0
 39 81  1  0  0  0  0
 40 82  1  0  0  0  0
 40 83  1  0  0  0  0
 40 84  1  0  0  0  0
M  END
> <PUBCHEM_COMPOUND_CID>
21578588

> <PUBCHEM_COMPOUND_CANONICALIZED>
1

> <PUBCHEM_CACTVS_COMPLEXITY>
775

> <PUBCHEM_CACTVS_HBOND_ACCEPTOR>
15

> <PUBCHEM_CACTVS_HBOND_DONOR>
9

> <PUBCHEM_CACTVS_ROTATABLE_BOND>
14

> <PUBCHEM_CACTVS_SUBSKEYS>
AAADcfB4PAAAAAAAAAAAAAAAAAAAASAAAAAkSAAAAAAAAAAAAAAAGgAACAAADFSwgAMCCAAABgCAACBCAAAAAAAgAAAIAAAAAAgRFAIAIQAiQAAFgAAHIAHA4AwIAAAAAAAAAAAAAAAAAAAAAAAAAAAAAA==

> <PUBCHEM_IUPAC_OPENEYE_NAME>
(2S,3R,4S,5S,6R)-2-[(2R,3R,4S,5S,6R)-6-[[(2R,3R,4R)-3,4-dihydroxy-4-(hydroxymethyl)tetrahydrofuran-2-yl]oxymethyl]-4,5-dihydroxy-2-[(1R)-1-vinylhexoxy]tetrahydropyran-3-yl]oxy-6-(hydroxymethyl)tetrahydropyran-3,4,5-triol

> <PUBCHEM_IUPAC_CAS_NAME>
(2S,3R,4S,5S,6R)-2-[[(2R,3R,4S,5S,6R)-6-[[(2R,3R,4R)-3,4-dihydroxy-4-(hydroxymethyl)-2-oxolanyl]oxymethyl]-4,5-dihydroxy-2-[(3R)-oct-1-en-3-yl]oxy-3-oxanyl]oxy]-6-(hydroxymethyl)oxane-3,4,5-triol

> <PUBCHEM_IUPAC_NAME_MARKUP>
(2<I>S</I>,3<I>R</I>,4<I>S</I>,5<I>S</I>,6<I>R</I>)-2-[(2<I>R</I>,3<I>R</I>,4<I>S</I>,5<I>S</I>,6<I>R</I>)-6-[[(2<I>R</I>,3<I>R</I>,4<I>R</I>)-3,4-dihydroxy-4-(hydroxymethyl)oxolan-2-yl]oxymethyl]-4,5-dihydroxy-2-[(3<I>R</I>)-oct-1-en-3-yl]oxyoxan-3-yl]oxy-6-(hydroxymethyl)oxane-3,4,5-triol

> <PUBCHEM_IUPAC_NAME>
(2S,3R,4S,5S,6R)-2-[(2R,3R,4S,5S,6R)-6-[[(2R,3R,4R)-3,4-dihydroxy-4-(hydroxymethyl)oxolan-2-yl]oxymethyl]-4,5-dihydroxy-2-[(3R)-oct-1-en-3-yl]oxyoxan-3-yl]oxy-6-(hydroxymethyl)oxane-3,4,5-triol

> <PUBCHEM_IUPAC_SYSTEMATIC_NAME>
(2R,3S,4S,5R,6S)-2-(hydroxymethyl)-6-[(2R,3R,4S,5S,6R)-6-[[(2R,3R,4R)-4-(hydroxymethyl)-3,4-bis(oxidanyl)oxolan-2-yl]oxymethyl]-2-[(3R)-oct-1-en-3-yl]oxy-4,5-bis(oxidanyl)oxan-3-yl]oxy-oxane-3,4,5-triol

> <PUBCHEM_IUPAC_TRADITIONAL_NAME>
(2S,3R,4S,5S,6R)-2-[(2R,3R,4S,5S,6R)-2-[(1R)-1-amylallyloxy]-6-[[(2R,3R,4R)-3,4-dihydroxy-4-methylol-tetrahydrofuran-2-yl]oxymethyl]-4,5-dihydroxy-tetrahydropyran-3-yl]oxy-6-methylol-tetrahydropyran-3,4,5-triol

> <PUBCHEM_IUPAC_INCHI>
InChI=1S/C25H44O15/c1-3-5-6-7-12(4-2)37-23-20(40-22-19(32)17(30)15(28)13(8-26)38-22)18(31)16(29)14(39-23)9-35-24-21(33)25(34,10-27)11-36-24/h4,12-24,26-34H,2-3,5-11H2,1H3/t12-,13+,14+,15+,16+,17-,18-,19+,20+,21-,22-,23+,24+,25+/m0/s1

> <PUBCHEM_IUPAC_INCHIKEY>
WMNJHLHUJPQZPI-CASAEPEVSA-N

> <PUBCHEM_XLOGP3_AA>
-2.4

> <PUBCHEM_EXACT_MASS>
584.26802069

> <PUBCHEM_MOLECULAR_FORMULA>
C25H44O15

> <PUBCHEM_MOLECULAR_WEIGHT>
584.6

> <PUBCHEM_OPENEYE_CAN_SMILES>
CCCCCC(C=C)OC1C(C(C(C(O1)COC2C(C(CO2)(CO)O)O)O)O)OC3C(C(C(C(O3)CO)O)O)O

> <PUBCHEM_OPENEYE_ISO_SMILES>
CCCCC[C@H](C=C)O[C@H]1[C@@H]([C@H]([C@@H]([C@H](O1)CO[C@H]2[C@@H]([C@](CO2)(CO)O)O)O)O)O[C@H]3[C@@H]([C@H]([C@@H]([C@H](O3)CO)O)O)O

> <PUBCHEM_CACTVS_TPSA>
237

> <PUBCHEM_MONOISOTOPIC_WEIGHT>
584.26802069

> <PUBCHEM_TOTAL_CHARGE>
0

> <PUBCHEM_HEAVY_ATOM_COUNT>
40

> <PUBCHEM_ATOM_DEF_STEREO_COUNT>
14

> <PUBCHEM_ATOM_UDEF_STEREO_COUNT>
0

> <PUBCHEM_BOND_DEF_STEREO_COUNT>
0

> <PUBCHEM_BOND_UDEF_STEREO_COUNT>
0

> <PUBCHEM_ISOTOPIC_ATOM_COUNT>
0

> <PUBCHEM_COMPONENT_COUNT>
1

> <PUBCHEM_CACTVS_TAUTO_COUNT>
-1

> <PUBCHEM_COORDINATE_TYPE>
1
5
255

> <PUBCHEM_BONDANNOTATIONS>
23  10  6
25  11  5
26  12  5
28  13  5
19  24  5
16  2  6
21  2  6
27  33  6
29  4  6
20  5  5
31  5  6
17  6  5
18  8  6
22  9  5

$$$$
