 
  -OEChem-10192103292D

 67 68  0     1  0  0  0  0  0999 V2000
    9.0991   -5.6830    0.0000 P   0  0  0  0  0  0  0  0  0  0  0  0
    6.0010   -0.3170    0.0000 O   0  0  0  0  0  0  0  0  0  0  0  0
   10.4651   -0.3170    0.0000 O   0  0  0  0  0  0  0  0  0  0  0  0
    8.2331   -5.1830    0.0000 O   0  0  0  0  0  0  0  0  0  0  0  0
    6.8671    3.1830    0.0000 O   0  0  0  0  0  0  0  0  0  0  0  0
    3.4030    0.1830    0.0000 O   0  0  0  0  0  0  0  0  0  0  0  0
    9.9651   -6.1830    0.0000 O   0  0  0  0  0  0  0  0  0  0  0  0
    8.5991   -6.5490    0.0000 O   0  0  0  0  0  0  0  0  0  0  0  0
    9.5991   -4.8170    0.0000 O   0  0  0  0  0  0  0  0  0  0  0  0
    4.2690    5.6830    0.0000 O   0  0  0  0  0  0  0  0  0  0  0  0
    5.1350    6.1830    0.0000 O   0  0  0  0  0  0  0  0  0  0  0  0
    6.8671    1.1830    0.0000 N   0  0  0  0  0  0  0  0  0  0  0  0
    9.5991    1.1830    0.0000 N   0  0  0  0  0  0  0  0  0  0  0  0
    5.1350    3.1830    0.0000 N   0  0  0  0  0  0  0  0  0  0  0  0
    2.5369    1.6830    0.0000 N   0  0  0  0  0  0  0  0  0  0  0  0
    3.4030    4.1830    0.0000 N   0  0  0  0  0  0  0  0  0  0  0  0
    6.8671    6.1830    0.0000 N   0  0  0  0  0  0  0  0  0  0  0  0
    8.2331   -1.1830    0.0000 C   0  0  2  0  0  0  0  0  0  0  0  0
    7.7331   -0.3170    0.0000 C   0  0  2  0  0  0  0  0  0  0  0  0
    8.7331   -0.3170    0.0000 C   0  0  2  0  0  0  0  0  0  0  0  0
    8.2331   -2.1830    0.0000 C   0  0  0  0  0  0  0  0  0  0  0  0
    6.8671    0.1830    0.0000 C   0  0  0  0  0  0  0  0  0  0  0  0
    9.5991    0.1830    0.0000 C   0  0  0  0  0  0  0  0  0  0  0  0
    9.0991   -2.6830    0.0000 C   0  0  0  0  0  0  0  0  0  0  0  0
    7.3671   -2.6830    0.0000 C   0  0  0  0  0  0  0  0  0  0  0  0
    6.0010    1.6830    0.0000 C   0  0  1  0  0  0  0  0  0  0  0  0
    9.0991   -3.6830    0.0000 C   0  0  0  0  0  0  0  0  0  0  0  0
    7.3671   -3.6830    0.0000 C   0  0  0  0  0  0  0  0  0  0  0  0
    5.1350    1.1830    0.0000 C   0  0  0  0  0  0  0  0  0  0  0  0
    8.2331   -4.1830    0.0000 C   0  0  0  0  0  0  0  0  0  0  0  0
   10.4651    1.6830    0.0000 C   0  0  0  0  0  0  0  0  0  0  0  0
    6.0010    2.6830    0.0000 C   0  0  0  0  0  0  0  0  0  0  0  0
    4.2690    1.6830    0.0000 C   0  0  0  0  0  0  0  0  0  0  0  0
    5.1350    4.1830    0.0000 C   0  0  1  0  0  0  0  0  0  0  0  0
    3.4030    1.1830    0.0000 C   0  0  0  0  0  0  0  0  0  0  0  0
    6.0010    4.6830    0.0000 C   0  0  0  0  0  0  0  0  0  0  0  0
    4.2690    4.6830    0.0000 C   0  0  0  0  0  0  0  0  0  0  0  0
    6.0010    5.6830    0.0000 C   0  0  0  0  0  0  0  0  0  0  0  0
    8.8320   -1.3435    0.0000 H   0  0  0  0  0  0  0  0  0  0  0  0
    7.2947   -0.7554    0.0000 H   0  0  0  0  0  0  0  0  0  0  0  0
    9.1715   -0.7554    0.0000 H   0  0  0  0  0  0  0  0  0  0  0  0
    7.4040    1.4930    0.0000 H   0  0  0  0  0  0  0  0  0  0  0  0
    9.6360   -2.3730    0.0000 H   0  0  0  0  0  0  0  0  0  0  0  0
    6.8301   -2.3730    0.0000 H   0  0  0  0  0  0  0  0  0  0  0  0
    9.0622    1.4930    0.0000 H   0  0  0  0  0  0  0  0  0  0  0  0
    6.5380    1.9930    0.0000 H   0  0  0  0  0  0  0  0  0  0  0  0
    9.6360   -3.9930    0.0000 H   0  0  0  0  0  0  0  0  0  0  0  0
    6.8301   -3.9930    0.0000 H   0  0  0  0  0  0  0  0  0  0  0  0
    4.7365    0.7081    0.0000 H   0  0  0  0  0  0  0  0  0  0  0  0
    5.5335    0.7081    0.0000 H   0  0  0  0  0  0  0  0  0  0  0  0
   10.7751    1.1461    0.0000 H   0  0  0  0  0  0  0  0  0  0  0  0
   11.0021    1.9930    0.0000 H   0  0  0  0  0  0  0  0  0  0  0  0
   10.1551    2.2200    0.0000 H   0  0  0  0  0  0  0  0  0  0  0  0
    4.6675    2.1580    0.0000 H   0  0  0  0  0  0  0  0  0  0  0  0
    3.8705    2.1580    0.0000 H   0  0  0  0  0  0  0  0  0  0  0  0
    4.5981    2.8730    0.0000 H   0  0  0  0  0  0  0  0  0  0  0  0
    5.6720    3.8730    0.0000 H   0  0  0  0  0  0  0  0  0  0  0  0
    6.2131    4.1004    0.0000 H   0  0  0  0  0  0  0  0  0  0  0  0
    6.6116    4.7907    0.0000 H   0  0  0  0  0  0  0  0  0  0  0  0
    2.0000    1.3730    0.0000 H   0  0  0  0  0  0  0  0  0  0  0  0
    2.5369    2.3030    0.0000 H   0  0  0  0  0  0  0  0  0  0  0  0
    9.9651   -6.8030    0.0000 H   0  0  0  0  0  0  0  0  0  0  0  0
    7.9791   -6.5490    0.0000 H   0  0  0  0  0  0  0  0  0  0  0  0
    2.8660    4.4930    0.0000 H   0  0  0  0  0  0  0  0  0  0  0  0
    3.4030    3.5630    0.0000 H   0  0  0  0  0  0  0  0  0  0  0  0
    6.8671    6.8030    0.0000 H   0  0  0  0  0  0  0  0  0  0  0  0
    7.4040    5.8730    0.0000 H   0  0  0  0  0  0  0  0  0  0  0  0
  1  4  1  0  0  0  0
  1  7  1  0  0  0  0
  1  8  1  0  0  0  0
  1  9  2  0  0  0  0
  2 22  2  0  0  0  0
  3 23  2  0  0  0  0
  4 30  1  0  0  0  0
  5 32  2  0  0  0  0
  6 35  2  0  0  0  0
  7 62  1  0  0  0  0
  8 63  1  0  0  0  0
 10 37  2  0  0  0  0
 11 38  2  0  0  0  0
 12 22  1  0  0  0  0
 26 12  1  1  0  0  0
 12 42  1  0  0  0  0
 13 23  1  0  0  0  0
 13 31  1  0  0  0  0
 13 45  1  0  0  0  0
 14 32  1  0  0  0  0
 34 14  1  6  0  0  0
 14 56  1  0  0  0  0
 15 35  1  0  0  0  0
 15 60  1  0  0  0  0
 15 61  1  0  0  0  0
 16 37  1  0  0  0  0
 16 64  1  0  0  0  0
 16 65  1  0  0  0  0
 17 38  1  0  0  0  0
 17 66  1  0  0  0  0
 17 67  1  0  0  0  0
 18 19  1  0  0  0  0
 18 20  1  0  0  0  0
 18 21  1  6  0  0  0
 18 39  1  0  0  0  0
 19 20  1  0  0  0  0
 19 22  1  1  0  0  0
 19 40  1  0  0  0  0
 20 23  1  6  0  0  0
 20 41  1  0  0  0  0
 21 24  2  0  0  0  0
 21 25  1  0  0  0  0
 24 27  1  0  0  0  0
 24 43  1  0  0  0  0
 25 28  2  0  0  0  0
 25 44  1  0  0  0  0
 26 29  1  0  0  0  0
 26 32  1  0  0  0  0
 26 46  1  0  0  0  0
 27 30  2  0  0  0  0
 27 47  1  0  0  0  0
 28 30  1  0  0  0  0
 28 48  1  0  0  0  0
 29 33  1  0  0  0  0
 29 49  1  0  0  0  0
 29 50  1  0  0  0  0
 31 51  1  0  0  0  0
 31 52  1  0  0  0  0
 31 53  1  0  0  0  0
 33 35  1  0  0  0  0
 33 54  1  0  0  0  0
 33 55  1  0  0  0  0
 34 36  1  0  0  0  0
 34 37  1  0  0  0  0
 34 57  1  0  0  0  0
 36 38  1  0  0  0  0
 36 58  1  0  0  0  0
 36 59  1  0  0  0  0
M  END
> <PUBCHEM_COMPOUND_CID>
44462695

> <PUBCHEM_COMPOUND_CANONICALIZED>
1

> <PUBCHEM_CACTVS_COMPLEXITY>
995

> <PUBCHEM_CACTVS_HBOND_ACCEPTOR>
10

> <PUBCHEM_CACTVS_HBOND_DONOR>
8

> <PUBCHEM_CACTVS_ROTATABLE_BOND>
14

> <PUBCHEM_CACTVS_SUBSKEYS>
AAADceB7vAIAAAAAAAAAAAAAGAAAAAAAAAAwAAAAAAAAAAABAAAAHgAQCCAADSzBmAQyBoLAARCIQiFSEIACAAAgIAAIiIGOCIgIZjqA0TKUMAAk1hGIiAedy/COoAAAAAAAAABAAAAAAAAAAAAAAAAAAA==

> <PUBCHEM_IUPAC_OPENEYE_NAME>
[4-[(1S,2R,3R)-2-[[(1S)-4-amino-1-[[(1S)-3-amino-1-carbamoyl-3-oxo-propyl]carbamoyl]-4-oxo-butyl]carbamoyl]-3-(methylcarbamoyl)cyclopropyl]phenyl] dihydrogen phosphate

> <PUBCHEM_IUPAC_CAS_NAME>
[4-[(1S,2R,3R)-2-[[[(2S)-5-amino-1-[[(2S)-1,4-diamino-1,4-dioxobutan-2-yl]amino]-1,5-dioxopentan-2-yl]amino]-oxomethyl]-3-(methylcarbamoyl)cyclopropyl]phenyl] dihydrogen phosphate

> <PUBCHEM_IUPAC_NAME_MARKUP>
[4-[(1<I>S</I>,2<I>R</I>,3<I>R</I>)-2-[[(2<I>S</I>)-5-amino-1-[[(2<I>S</I>)-1,4-diamino-1,4-dioxobutan-2-yl]amino]-1,5-dioxopentan-2-yl]carbamoyl]-3-(methylcarbamoyl)cyclopropyl]phenyl] dihydrogen phosphate

> <PUBCHEM_IUPAC_NAME>
[4-[(1S,2R,3R)-2-[[(2S)-5-amino-1-[[(2S)-1,4-diamino-1,4-dioxobutan-2-yl]amino]-1,5-dioxopentan-2-yl]carbamoyl]-3-(methylcarbamoyl)cyclopropyl]phenyl] dihydrogen phosphate

> <PUBCHEM_IUPAC_SYSTEMATIC_NAME>
[4-[(1S,2R,3R)-2-[[(2S)-5-azanyl-1-[[(2S)-1,4-bis(azanyl)-1,4-bis(oxidanylidene)butan-2-yl]amino]-1,5-bis(oxidanylidene)pentan-2-yl]carbamoyl]-3-(methylcarbamoyl)cyclopropyl]phenyl] dihydrogen phosphate

> <PUBCHEM_IUPAC_TRADITIONAL_NAME>
[4-[(1S,2R,3R)-2-[[(1S)-4-amino-1-[[(1S)-3-amino-1-carbamoyl-3-keto-propyl]carbamoyl]-4-keto-butyl]carbamoyl]-3-(methylcarbamoyl)cyclopropyl]phenyl] dihydrogen phosphate

> <PUBCHEM_IUPAC_INCHI>
InChI=1S/C21H29N6O10P/c1-25-20(32)16-15(9-2-4-10(5-3-9)37-38(34,35)36)17(16)21(33)26-11(6-7-13(22)28)19(31)27-12(18(24)30)8-14(23)29/h2-5,11-12,15-17H,6-8H2,1H3,(H2,22,28)(H2,23,29)(H2,24,30)(H,25,32)(H,26,33)(H,27,31)(H2,34,35,36)/t11-,12-,15-,16+,17+/m0/s1

> <PUBCHEM_IUPAC_INCHIKEY>
RYXSIJXAOLAGQV-PASATYPHSA-N

> <PUBCHEM_XLOGP3_AA>
-4.9

> <PUBCHEM_EXACT_MASS>
556.16827814

> <PUBCHEM_MOLECULAR_FORMULA>
C21H29N6O10P

> <PUBCHEM_MOLECULAR_WEIGHT>
556.5

> <PUBCHEM_OPENEYE_CAN_SMILES>
CNC(=O)C1C(C1C(=O)NC(CCC(=O)N)C(=O)NC(CC(=O)N)C(=O)N)C2=CC=C(C=C2)OP(=O)(O)O

> <PUBCHEM_OPENEYE_ISO_SMILES>
CNC(=O)[C@@H]1[C@@H]([C@H]1C(=O)N[C@@H](CCC(=O)N)C(=O)N[C@@H](CC(=O)N)C(=O)N)C2=CC=C(C=C2)OP(=O)(O)O

> <PUBCHEM_CACTVS_TPSA>
283

> <PUBCHEM_MONOISOTOPIC_WEIGHT>
556.16827814

> <PUBCHEM_TOTAL_CHARGE>
0

> <PUBCHEM_HEAVY_ATOM_COUNT>
38

> <PUBCHEM_ATOM_DEF_STEREO_COUNT>
5

> <PUBCHEM_ATOM_UDEF_STEREO_COUNT>
0

> <PUBCHEM_BOND_DEF_STEREO_COUNT>
0

> <PUBCHEM_BOND_UDEF_STEREO_COUNT>
0

> <PUBCHEM_ISOTOPIC_ATOM_COUNT>
0

> <PUBCHEM_COMPONENT_COUNT>
1

> <PUBCHEM_CACTVS_TAUTO_COUNT>
-1

> <PUBCHEM_COORDINATE_TYPE>
1
5
255

> <PUBCHEM_BONDANNOTATIONS>
26  12  5
34  14  6
18  21  6
19  22  5
20  23  6
21  24  8
21  25  8
24  27  8
25  28  8
27  30  8
28  30  8

$$$$
