 
  -OEChem-10192104112D

 36 35  0     1  0  0  0  0  0999 V2000
    5.1350    0.2315    0.0000 O   0  0  0  0  0  0  0  0  0  0  0  0
    7.7331   -1.2685    0.0000 O   0  0  0  0  0  0  0  0  0  0  0  0
    2.5369   -0.2685    0.0000 O   0  0  0  0  0  0  0  0  0  0  0  0
    2.7602   -1.5346    0.0000 O   0  0  0  0  0  0  0  0  0  0  0  0
    6.0010   -1.2685    0.0000 O   0  0  0  0  0  0  0  0  0  0  0  0
    3.7690    2.3296    0.0000 O   0  0  0  0  0  0  0  0  0  0  0  0
    4.7690   -2.8665    0.0000 O   0  0  0  0  0  0  0  0  0  0  0  0
    5.2690    1.4636    0.0000 O   0  0  0  0  0  0  0  0  0  0  0  0
    3.5029   -2.6432    0.0000 O   0  0  0  0  0  0  0  0  0  0  0  0
   10.3312    0.2315    0.0000 O   0  0  0  0  0  0  0  0  0  0  0  0
    9.4651   -1.2685    0.0000 O   0  0  0  0  0  0  0  0  0  0  0  0
    4.2690   -0.2685    0.0000 C   0  0  0  0  0  0  0  0  0  0  0  0
    3.7690    0.5976    0.0000 C   0  0  0  0  0  0  0  0  0  0  0  0
    4.7690   -1.1345    0.0000 C   0  0  0  0  0  0  0  0  0  0  0  0
    6.8671    0.2315    0.0000 C   0  0  0  0  0  0  0  0  0  0  0  0
    7.7331   -0.2685    0.0000 C   0  0  3  0  0  0  0  0  0  0  0  0
    3.4030   -0.7685    0.0000 C   0  0  0  0  0  0  0  0  0  0  0  0
    6.0010   -0.2685    0.0000 C   0  0  0  0  0  0  0  0  0  0  0  0
    8.5991    0.2315    0.0000 C   0  0  0  0  0  0  0  0  0  0  0  0
    4.2690    1.4636    0.0000 C   0  0  0  0  0  0  0  0  0  0  0  0
    4.2690   -2.0005    0.0000 C   0  0  0  0  0  0  0  0  0  0  0  0
    9.4651   -0.2685    0.0000 C   0  0  0  0  0  0  0  0  0  0  0  0
    3.2940    0.9961    0.0000 H   0  0  0  0  0  0  0  0  0  0  0  0
    3.2940    0.1990    0.0000 H   0  0  0  0  0  0  0  0  0  0  0  0
    5.2439   -1.5330    0.0000 H   0  0  0  0  0  0  0  0  0  0  0  0
    5.2439   -0.7360    0.0000 H   0  0  0  0  0  0  0  0  0  0  0  0
    7.2656    0.7065    0.0000 H   0  0  0  0  0  0  0  0  0  0  0  0
    6.4685    0.7065    0.0000 H   0  0  0  0  0  0  0  0  0  0  0  0
    8.2700   -0.5785    0.0000 H   0  0  0  0  0  0  0  0  0  0  0  0
    8.9976    0.7065    0.0000 H   0  0  0  0  0  0  0  0  0  0  0  0
    8.2006    0.7065    0.0000 H   0  0  0  0  0  0  0  0  0  0  0  0
    8.2700   -1.5785    0.0000 H   0  0  0  0  0  0  0  0  0  0  0  0
    2.0000   -0.5785    0.0000 H   0  0  0  0  0  0  0  0  0  0  0  0
    4.0790    2.8665    0.0000 H   0  0  0  0  0  0  0  0  0  0  0  0
    5.3890   -2.8665    0.0000 H   0  0  0  0  0  0  0  0  0  0  0  0
   10.8681   -0.0785    0.0000 H   0  0  0  0  0  0  0  0  0  0  0  0
  1 12  1  0  0  0  0
  1 18  1  0  0  0  0
  2 16  1  0  0  0  0
  2 32  1  0  0  0  0
  3 17  1  0  0  0  0
  3 33  1  0  0  0  0
  4 17  2  0  0  0  0
  5 18  2  0  0  0  0
  6 20  1  0  0  0  0
  6 34  1  0  0  0  0
  7 21  1  0  0  0  0
  7 35  1  0  0  0  0
  8 20  2  0  0  0  0
  9 21  2  0  0  0  0
 10 22  1  0  0  0  0
 10 36  1  0  0  0  0
 11 22  2  0  0  0  0
 12 13  1  0  0  0  0
 12 14  1  0  0  0  0
 12 17  1  0  0  0  0
 13 20  1  0  0  0  0
 13 23  1  0  0  0  0
 13 24  1  0  0  0  0
 14 21  1  0  0  0  0
 14 25  1  0  0  0  0
 14 26  1  0  0  0  0
 15 16  1  0  0  0  0
 15 18  1  0  0  0  0
 15 27  1  0  0  0  0
 15 28  1  0  0  0  0
 16 19  1  0  0  0  0
 16 29  1  0  0  0  0
 19 22  1  0  0  0  0
 19 30  1  0  0  0  0
 19 31  1  0  0  0  0
M  END
> <PUBCHEM_COMPOUND_CID>
87327163

> <PUBCHEM_COMPOUND_CANONICALIZED>
1

> <PUBCHEM_CACTVS_COMPLEXITY>
464

> <PUBCHEM_CACTVS_HBOND_ACCEPTOR>
11

> <PUBCHEM_CACTVS_HBOND_DONOR>
5

> <PUBCHEM_CACTVS_ROTATABLE_BOND>
11

> <PUBCHEM_CACTVS_SUBSKEYS>
AAADccBwPAAAAAAAAAAAAAAAAAAAAAAAAAAAAAAAAAAAAAAAAAAAGgAACAAADFSggAIACAAABgAIAACQCAIAAAAAAAAAAAFAAAABEBYAAAQCQAAFIAADAADLJggKAAAAAAAAAAAAAAAAAAAAAAAAAAAAAA==

> <PUBCHEM_IUPAC_OPENEYE_NAME>
2-(4-carboxy-3-hydroxy-butanoyl)oxypropane-1,2,3-tricarboxylic acid

> <PUBCHEM_IUPAC_CAS_NAME>
2-(4-carboxy-3-hydroxy-1-oxobutoxy)propane-1,2,3-tricarboxylic acid

> <PUBCHEM_IUPAC_NAME_MARKUP>
2-(4-carboxy-3-hydroxybutanoyl)oxypropane-1,2,3-tricarboxylic acid

> <PUBCHEM_IUPAC_NAME>
2-(4-carboxy-3-hydroxybutanoyl)oxypropane-1,2,3-tricarboxylic acid

> <PUBCHEM_IUPAC_SYSTEMATIC_NAME>
2-[3,5-bis(oxidanyl)-5-oxidanylidene-pentanoyl]oxypropane-1,2,3-tricarboxylic acid

> <PUBCHEM_IUPAC_TRADITIONAL_NAME>
2-(4-carboxy-3-hydroxy-butanoyl)oxypropane-1,2,3-tricarboxylic acid

> <PUBCHEM_IUPAC_INCHI>
InChI=1S/C11H14O11/c12-5(1-6(13)14)2-9(19)22-11(10(20)21,3-7(15)16)4-8(17)18/h5,12H,1-4H2,(H,13,14)(H,15,16)(H,17,18)(H,20,21)

> <PUBCHEM_IUPAC_INCHIKEY>
WPLLKJVVJIQAQF-UHFFFAOYSA-N

> <PUBCHEM_XLOGP3_AA>
-2.6

> <PUBCHEM_EXACT_MASS>
322.05361126

> <PUBCHEM_MOLECULAR_FORMULA>
C11H14O11

> <PUBCHEM_MOLECULAR_WEIGHT>
322.22

> <PUBCHEM_OPENEYE_CAN_SMILES>
C(C(CC(=O)OC(CC(=O)O)(CC(=O)O)C(=O)O)O)C(=O)O

> <PUBCHEM_OPENEYE_ISO_SMILES>
C(C(CC(=O)OC(CC(=O)O)(CC(=O)O)C(=O)O)O)C(=O)O

> <PUBCHEM_CACTVS_TPSA>
196

> <PUBCHEM_MONOISOTOPIC_WEIGHT>
322.05361126

> <PUBCHEM_TOTAL_CHARGE>
0

> <PUBCHEM_HEAVY_ATOM_COUNT>
22

> <PUBCHEM_ATOM_DEF_STEREO_COUNT>
0

> <PUBCHEM_ATOM_UDEF_STEREO_COUNT>
1

> <PUBCHEM_BOND_DEF_STEREO_COUNT>
0

> <PUBCHEM_BOND_UDEF_STEREO_COUNT>
0

> <PUBCHEM_ISOTOPIC_ATOM_COUNT>
0

> <PUBCHEM_COMPONENT_COUNT>
1

> <PUBCHEM_CACTVS_TAUTO_COUNT>
-1

> <PUBCHEM_COORDINATE_TYPE>
1
5
255

> <PUBCHEM_BONDANNOTATIONS>
16  2  3

$$$$
