 
  -OEChem-10192104442D

 83 87  0     1  0  0  0  0  0999 V2000
    8.2811    3.5716    0.0000 O   0  0  0  0  0  0  0  0  0  0  0  0
    2.5357   -1.9563    0.0000 O   0  0  0  0  0  0  0  0  0  0  0  0
    2.5519    0.1353    0.0000 O   0  0  0  0  0  0  0  0  0  0  0  0
    4.3500   -3.7342    0.0000 O   0  0  0  0  0  0  0  0  0  0  0  0
    2.8467   -2.8739    0.0000 O   0  0  0  0  0  0  0  0  0  0  0  0
    7.0628   -0.4039    0.0000 C   0  0  3  0  0  0  0  0  0  0  0  0
    6.1968    0.0961    0.0000 C   0  0  3  0  0  0  0  0  0  0  0  0
    7.9288    0.0961    0.0000 C   0  0  3  0  0  0  0  0  0  0  0  0
    5.2868   -0.4108    0.0000 C   0  0  3  0  0  0  0  0  0  0  0  0
    5.2787   -1.4524    0.0000 C   0  0  3  0  0  0  0  0  0  0  0  0
    7.0789   -1.4454    0.0000 C   0  0  0  0  0  0  0  0  0  0  0  0
    7.9288    1.0961    0.0000 C   0  0  0  0  0  0  0  0  0  0  0  0
    8.8228    1.6307    0.0000 C   0  0  3  0  0  0  0  0  0  0  0  0
    9.7288    1.1169    0.0000 C   0  0  3  0  0  0  0  0  0  0  0  0
    6.1808   -1.9732    0.0000 C   0  0  0  0  0  0  0  0  0  0  0  0
    8.8228   -0.4386    0.0000 C   0  0  0  0  0  0  0  0  0  0  0  0
    6.1968    1.0961    0.0000 C   0  0  0  0  0  0  0  0  0  0  0  0
    4.3433   -2.0021    0.0000 C   0  0  3  0  0  0  0  0  0  0  0  0
    4.3599    0.1533    0.0000 C   0  0  0  0  0  0  0  0  0  0  0  0
    9.7288    0.0752    0.0000 C   0  0  0  0  0  0  0  0  0  0  0  0
    7.7056   -1.1700    0.0000 C   0  0  0  0  0  0  0  0  0  0  0  0
    8.7977    2.7154    0.0000 C   0  0  3  0  0  0  0  0  0  0  0  0
    7.0628    1.5961    0.0000 C   0  0  0  0  0  0  0  0  0  0  0  0
    8.2709   -0.8436    0.0000 C   0  0  0  0  0  0  0  0  0  0  0  0
    5.2945    0.5892    0.0000 C   0  0  0  0  0  0  0  0  0  0  0  0
    3.4037   -1.4596    0.0000 C   0  0  3  0  0  0  0  0  0  0  0  0
    3.4120   -0.3747    0.0000 C   0  0  3  0  0  0  0  0  0  0  0  0
   10.6726    1.6521    0.0000 C   0  0  0  0  0  0  0  0  0  0  0  0
    9.7288    3.2723    0.0000 C   0  0  3  0  0  0  0  0  0  0  0  0
   10.6726    2.7371    0.0000 C   0  0  0  0  0  0  0  0  0  0  0  0
   10.5987    0.6236    0.0000 C   0  0  0  0  0  0  0  0  0  0  0  0
    4.8466   -2.8662    0.0000 C   0  0  0  0  0  0  0  0  0  0  0  0
    3.8467   -2.8701    0.0000 C   0  0  0  0  0  0  0  0  0  0  0  0
    7.7979    2.6962    0.0000 C   0  0  0  0  0  0  0  0  0  0  0  0
    9.7173    4.2723    0.0000 C   0  0  0  0  0  0  0  0  0  0  0  0
    6.7337    0.4061    0.0000 H   0  0  0  0  0  0  0  0  0  0  0  0
    5.2811   -2.0724    0.0000 H   0  0  0  0  0  0  0  0  0  0  0  0
    7.2969   -2.0258    0.0000 H   0  0  0  0  0  0  0  0  0  0  0  0
    7.6880   -1.3300    0.0000 H   0  0  0  0  0  0  0  0  0  0  0  0
    8.2800    1.9303    0.0000 H   0  0  0  0  0  0  0  0  0  0  0  0
    5.7835   -2.4492    0.0000 H   0  0  0  0  0  0  0  0  0  0  0  0
    6.5818   -2.4461    0.0000 H   0  0  0  0  0  0  0  0  0  0  0  0
    8.4182   -0.9084    0.0000 H   0  0  0  0  0  0  0  0  0  0  0  0
    9.2164   -0.9176    0.0000 H   0  0  0  0  0  0  0  0  0  0  0  0
    5.9847    1.6787    0.0000 H   0  0  0  0  0  0  0  0  0  0  0  0
    5.5862    0.9884    0.0000 H   0  0  0  0  0  0  0  0  0  0  0  0
    4.7681    0.6199    0.0000 H   0  0  0  0  0  0  0  0  0  0  0  0
    3.9700    0.6353    0.0000 H   0  0  0  0  0  0  0  0  0  0  0  0
    9.9379   -0.5084    0.0000 H   0  0  0  0  0  0  0  0  0  0  0  0
   10.3397    0.1813    0.0000 H   0  0  0  0  0  0  0  0  0  0  0  0
    7.2306   -1.5685    0.0000 H   0  0  0  0  0  0  0  0  0  0  0  0
    8.1041   -1.6449    0.0000 H   0  0  0  0  0  0  0  0  0  0  0  0
    8.1805   -0.7715    0.0000 H   0  0  0  0  0  0  0  0  0  0  0  0
    7.0628    2.2161    0.0000 H   0  0  0  0  0  0  0  0  0  0  0  0
    7.6884   -1.0557    0.0000 H   0  0  0  0  0  0  0  0  0  0  0  0
    8.4830   -1.4262    0.0000 H   0  0  0  0  0  0  0  0  0  0  0  0
    8.8535   -0.6315    0.0000 H   0  0  0  0  0  0  0  0  0  0  0  0
    5.9145    0.5844    0.0000 H   0  0  0  0  0  0  0  0  0  0  0  0
    5.2993    1.2092    0.0000 H   0  0  0  0  0  0  0  0  0  0  0  0
    4.6745    0.5940    0.0000 H   0  0  0  0  0  0  0  0  0  0  0  0
    3.4025   -2.0796    0.0000 H   0  0  0  0  0  0  0  0  0  0  0  0
    2.8722   -0.6795    0.0000 H   0  0  0  0  0  0  0  0  0  0  0  0
   10.8817    1.0684    0.0000 H   0  0  0  0  0  0  0  0  0  0  0  0
   11.2835    1.7582    0.0000 H   0  0  0  0  0  0  0  0  0  0  0  0
   10.2628    3.5875    0.0000 H   0  0  0  0  0  0  0  0  0  0  0  0
   11.2835    2.6310    0.0000 H   0  0  0  0  0  0  0  0  0  0  0  0
   10.8817    3.3208    0.0000 H   0  0  0  0  0  0  0  0  0  0  0  0
   10.2928    0.0843    0.0000 H   0  0  0  0  0  0  0  0  0  0  0  0
   11.1380    0.3177    0.0000 H   0  0  0  0  0  0  0  0  0  0  0  0
   10.9045    1.1629    0.0000 H   0  0  0  0  0  0  0  0  0  0  0  0
    4.3109   -3.1783    0.0000 H   0  0  0  0  0  0  0  0  0  0  0  0
    5.1587   -3.4019    0.0000 H   0  0  0  0  0  0  0  0  0  0  0  0
    5.3824   -2.5541    0.0000 H   0  0  0  0  0  0  0  0  0  0  0  0
    7.7859    3.3160    0.0000 H   0  0  0  0  0  0  0  0  0  0  0  0
    7.1780    2.6842    0.0000 H   0  0  0  0  0  0  0  0  0  0  0  0
    7.8098    2.0763    0.0000 H   0  0  0  0  0  0  0  0  0  0  0  0
   10.3372    4.2794    0.0000 H   0  0  0  0  0  0  0  0  0  0  0  0
    9.7101    4.8922    0.0000 H   0  0  0  0  0  0  0  0  0  0  0  0
    9.0973    4.2651    0.0000 H   0  0  0  0  0  0  0  0  0  0  0  0
    8.5807    4.1145    0.0000 H   0  0  0  0  0  0  0  0  0  0  0  0
    2.0000   -1.6442    0.0000 H   0  0  0  0  0  0  0  0  0  0  0  0
    2.5590    0.7553    0.0000 H   0  0  0  0  0  0  0  0  0  0  0  0
    4.0421   -4.2723    0.0000 H   0  0  0  0  0  0  0  0  0  0  0  0
  1 22  1  0  0  0  0
  1 80  1  0  0  0  0
  2 26  1  0  0  0  0
  2 81  1  0  0  0  0
  3 27  1  0  0  0  0
  3 82  1  0  0  0  0
  4 33  1  0  0  0  0
  4 83  1  0  0  0  0
  5 33  2  0  0  0  0
  6  7  1  0  0  0  0
  6  8  1  0  0  0  0
  6 11  1  0  0  0  0
  6 21  1  0  0  0  0
  7  9  1  0  0  0  0
  7 17  1  0  0  0  0
  7 36  1  0  0  0  0
  8 12  1  0  0  0  0
  8 16  1  0  0  0  0
  8 24  1  0  0  0  0
  9 10  1  0  0  0  0
  9 19  1  0  0  0  0
  9 25  1  0  0  0  0
 10 15  1  0  0  0  0
 10 18  1  0  0  0  0
 10 37  1  0  0  0  0
 11 15  1  0  0  0  0
 11 38  1  0  0  0  0
 11 39  1  0  0  0  0
 12 13  1  0  0  0  0
 12 23  2  0  0  0  0
 13 14  1  0  0  0  0
 13 22  1  0  0  0  0
 13 40  1  0  0  0  0
 14 20  1  0  0  0  0
 14 28  1  0  0  0  0
 14 31  1  0  0  0  0
 15 41  1  0  0  0  0
 15 42  1  0  0  0  0
 16 20  1  0  0  0  0
 16 43  1  0  0  0  0
 16 44  1  0  0  0  0
 17 23  1  0  0  0  0
 17 45  1  0  0  0  0
 17 46  1  0  0  0  0
 18 26  1  0  0  0  0
 18 32  1  0  0  0  0
 18 33  1  0  0  0  0
 19 27  1  0  0  0  0
 19 47  1  0  0  0  0
 19 48  1  0  0  0  0
 20 49  1  0  0  0  0
 20 50  1  0  0  0  0
 21 51  1  0  0  0  0
 21 52  1  0  0  0  0
 21 53  1  0  0  0  0
 22 29  1  0  0  0  0
 22 34  1  0  0  0  0
 23 54  1  0  0  0  0
 24 55  1  0  0  0  0
 24 56  1  0  0  0  0
 24 57  1  0  0  0  0
 25 58  1  0  0  0  0
 25 59  1  0  0  0  0
 25 60  1  0  0  0  0
 26 27  1  0  0  0  0
 26 61  1  0  0  0  0
 27 62  1  0  0  0  0
 28 30  1  0  0  0  0
 28 63  1  0  0  0  0
 28 64  1  0  0  0  0
 29 30  1  0  0  0  0
 29 35  1  0  0  0  0
 29 65  1  0  0  0  0
 30 66  1  0  0  0  0
 30 67  1  0  0  0  0
 31 68  1  0  0  0  0
 31 69  1  0  0  0  0
 31 70  1  0  0  0  0
 32 71  1  0  0  0  0
 32 72  1  0  0  0  0
 32 73  1  0  0  0  0
 34 74  1  0  0  0  0
 34 75  1  0  0  0  0
 34 76  1  0  0  0  0
 35 77  1  0  0  0  0
 35 78  1  0  0  0  0
 35 79  1  0  0  0  0
M  END
> <PUBCHEM_COMPOUND_CID>
91143058

> <PUBCHEM_COMPOUND_CANONICALIZED>
1

> <PUBCHEM_CACTVS_COMPLEXITY>
960

> <PUBCHEM_CACTVS_HBOND_ACCEPTOR>
5

> <PUBCHEM_CACTVS_HBOND_DONOR>
4

> <PUBCHEM_CACTVS_ROTATABLE_BOND>
1

> <PUBCHEM_CACTVS_SUBSKEYS>
AAADcfB4OAAAAAAAAAAAAAAAAAAAAAAAAAAwYMGCAAAAAADAAAAAGgAACAAAD1SggAICCAAAAgCIAiDSCAAAAAAgAAAACAEAAAgBEBYAAQAAQAAF4AAJAAPKyPCPgAAAAAAAAADAAAYAADCAAAAAAAAAAA==

> <PUBCHEM_IUPAC_OPENEYE_NAME>
2,3,12-trihydroxy-4,6a,6b,8a,11,12,14b-heptamethyl-1,2,3,4a,5,6,7,8,9,10,11,12a,14,14a-tetradecahydropicene-4-carboxylic acid

> <PUBCHEM_IUPAC_CAS_NAME>
2,3,12-trihydroxy-4,6a,6b,8a,11,12,14b-heptamethyl-1,2,3,4a,5,6,7,8,9,10,11,12a,14,14a-tetradecahydropicene-4-carboxylic acid

> <PUBCHEM_IUPAC_NAME_MARKUP>
2,3,12-trihydroxy-4,6<I>a</I>,6<I>b</I>,8<I>a</I>,11,12,14<I>b</I>-heptamethyl-1,2,3,4<I>a</I>,5,6,7,8,9,10,11,12<I>a</I>,14,14<I>a</I>-tetradecahydropicene-4-carboxylic acid

> <PUBCHEM_IUPAC_NAME>
2,3,12-trihydroxy-4,6a,6b,8a,11,12,14b-heptamethyl-1,2,3,4a,5,6,7,8,9,10,11,12a,14,14a-tetradecahydropicene-4-carboxylic acid

> <PUBCHEM_IUPAC_SYSTEMATIC_NAME>
4,6a,6b,8a,11,12,14b-heptamethyl-2,3,12-tris(oxidanyl)-1,2,3,4a,5,6,7,8,9,10,11,12a,14,14a-tetradecahydropicene-4-carboxylic acid

> <PUBCHEM_IUPAC_TRADITIONAL_NAME>
2,3,12-trihydroxy-4,6a,6b,8a,11,12,14b-heptamethyl-1,2,3,4a,5,6,7,8,9,10,11,12a,14,14a-tetradecahydropicene-4-carboxylic acid

> <PUBCHEM_IUPAC_INCHI>
InChI=1S/C30H48O5/c1-17-10-12-25(2)14-15-27(4)18(22(25)30(17,7)35)8-9-20-26(3)16-19(31)23(32)29(6,24(33)34)21(26)11-13-28(20,27)5/h8,17,19-23,31-32,35H,9-16H2,1-7H3,(H,33,34)

> <PUBCHEM_IUPAC_INCHIKEY>
OKIUOAOEUAWWNW-UHFFFAOYSA-N

> <PUBCHEM_XLOGP3_AA>
5.9

> <PUBCHEM_EXACT_MASS>
488.35017463

> <PUBCHEM_MOLECULAR_FORMULA>
C30H48O5

> <PUBCHEM_MOLECULAR_WEIGHT>
488.7

> <PUBCHEM_OPENEYE_CAN_SMILES>
CC1CCC2(CCC3(C(=CCC4C3(CCC5C4(CC(C(C5(C)C(=O)O)O)O)C)C)C2C1(C)O)C)C

> <PUBCHEM_OPENEYE_ISO_SMILES>
CC1CCC2(CCC3(C(=CCC4C3(CCC5C4(CC(C(C5(C)C(=O)O)O)O)C)C)C2C1(C)O)C)C

> <PUBCHEM_CACTVS_TPSA>
98

> <PUBCHEM_MONOISOTOPIC_WEIGHT>
488.35017463

> <PUBCHEM_TOTAL_CHARGE>
0

> <PUBCHEM_HEAVY_ATOM_COUNT>
35

> <PUBCHEM_ATOM_DEF_STEREO_COUNT>
0

> <PUBCHEM_ATOM_UDEF_STEREO_COUNT>
12

> <PUBCHEM_BOND_DEF_STEREO_COUNT>
0

> <PUBCHEM_BOND_UDEF_STEREO_COUNT>
0

> <PUBCHEM_ISOTOPIC_ATOM_COUNT>
0

> <PUBCHEM_COMPONENT_COUNT>
1

> <PUBCHEM_CACTVS_TAUTO_COUNT>
-1

> <PUBCHEM_COORDINATE_TYPE>
1
5
255

> <PUBCHEM_BONDANNOTATIONS>
22  1  3
10  15  3
13  12  3
14  31  3
18  32  3
26  2  3
29  35  3
27  3  3
6  21  3
7  17  3
8  24  3
9  25  3

$$$$
