 
  -OEChem-10192103322D

 90 95  0     1  0  0  0  0  0999 V2000
    6.8100   -1.3556    0.0000 S   0  0  0  0  0  0  0  0  0  0  0  0
    6.7798    1.3556    0.0000 S   0  0  0  0  0  0  0  0  0  0  0  0
    5.1350   -6.4434    0.0000 O   0  0  0  0  0  0  0  0  0  0  0  0
   10.1869    6.4434    0.0000 O   0  0  0  0  0  0  0  0  0  0  0  0
    2.5369   -7.9434    0.0000 O   0  0  0  0  0  0  0  0  0  0  0  0
    2.5369   -5.9434    0.0000 O   0  0  0  0  0  0  0  0  0  0  0  0
    7.5888    7.9434    0.0000 O   0  0  0  0  0  0  0  0  0  0  0  0
    7.5888    5.9434    0.0000 O   0  0  0  0  0  0  0  0  0  0  0  0
    4.2690   -8.9434    0.0000 O   0  0  0  0  0  0  0  0  0  0  0  0
    9.3209    8.9434    0.0000 O   0  0  0  0  0  0  0  0  0  0  0  0
    6.0010   -8.9434    0.0000 O   0  0  0  0  0  0  0  0  0  0  0  0
   11.9190    7.4434    0.0000 O   0  0  0  0  0  0  0  0  0  0  0  0
    3.4030   -7.4434    0.0000 C   0  0  2  0  0  0  0  0  0  0  0  0
    3.4030   -6.4434    0.0000 C   0  0  2  0  0  0  0  0  0  0  0  0
    8.4548    7.4434    0.0000 C   0  0  2  0  0  0  0  0  0  0  0  0
    8.4548    6.4434    0.0000 C   0  0  2  0  0  0  0  0  0  0  0  0
    4.2690   -7.9434    0.0000 C   0  0  1  0  0  0  0  0  0  0  0  0
    9.3209    7.9434    0.0000 C   0  0  1  0  0  0  0  0  0  0  0  0
    4.2690   -5.9434    0.0000 C   0  0  2  0  0  0  0  0  0  0  0  0
    9.3209    5.9434    0.0000 C   0  0  2  0  0  0  0  0  0  0  0  0
    5.1350   -7.4434    0.0000 C   0  0  1  0  0  0  0  0  0  0  0  0
   10.1869    7.4434    0.0000 C   0  0  1  0  0  0  0  0  0  0  0  0
    4.2690   -4.9434    0.0000 C   0  0  0  0  0  0  0  0  0  0  0  0
    9.3209    4.9434    0.0000 C   0  0  0  0  0  0  0  0  0  0  0  0
    6.0010   -7.9434    0.0000 C   0  0  0  0  0  0  0  0  0  0  0  0
   11.0529    7.9434    0.0000 C   0  0  0  0  0  0  0  0  0  0  0  0
    5.1350   -4.4434    0.0000 C   0  0  0  0  0  0  0  0  0  0  0  0
    8.4548    4.4434    0.0000 C   0  0  0  0  0  0  0  0  0  0  0  0
    3.4030   -4.4434    0.0000 C   0  0  0  0  0  0  0  0  0  0  0  0
   10.1869    4.4434    0.0000 C   0  0  0  0  0  0  0  0  0  0  0  0
    5.1350   -3.4434    0.0000 C   0  0  0  0  0  0  0  0  0  0  0  0
    8.4548    3.4434    0.0000 C   0  0  0  0  0  0  0  0  0  0  0  0
    4.2690   -2.9434    0.0000 C   0  0  0  0  0  0  0  0  0  0  0  0
    9.3209    2.9434    0.0000 C   0  0  0  0  0  0  0  0  0  0  0  0
    3.4030   -3.4434    0.0000 C   0  0  0  0  0  0  0  0  0  0  0  0
   10.1869    3.4434    0.0000 C   0  0  0  0  0  0  0  0  0  0  0  0
    6.0010   -2.9434    0.0000 C   0  0  0  0  0  0  0  0  0  0  0  0
    7.5888    2.9434    0.0000 C   0  0  0  0  0  0  0  0  0  0  0  0
    4.2690   -1.9434    0.0000 C   0  0  0  0  0  0  0  0  0  0  0  0
    9.3209    1.9434    0.0000 C   0  0  0  0  0  0  0  0  0  0  0  0
    6.0010   -1.9434    0.0000 C   0  0  0  0  0  0  0  0  0  0  0  0
    7.5888    1.9434    0.0000 C   0  0  0  0  0  0  0  0  0  0  0  0
    6.5010   -0.4045    0.0000 C   0  0  0  0  0  0  0  0  0  0  0  0
    7.0888    0.4045    0.0000 C   0  0  0  0  0  0  0  0  0  0  0  0
    5.1920   -1.3556    0.0000 C   0  0  0  0  0  0  0  0  0  0  0  0
    8.3978    1.3556    0.0000 C   0  0  0  0  0  0  0  0  0  0  0  0
    5.5010   -0.4045    0.0000 C   0  0  0  0  0  0  0  0  0  0  0  0
    8.0888    0.4045    0.0000 C   0  0  0  0  0  0  0  0  0  0  0  0
    3.4030   -8.0634    0.0000 H   0  0  0  0  0  0  0  0  0  0  0  0
    3.4030   -5.8233    0.0000 H   0  0  0  0  0  0  0  0  0  0  0  0
    7.9179    7.1334    0.0000 H   0  0  0  0  0  0  0  0  0  0  0  0
    8.9918    6.1334    0.0000 H   0  0  0  0  0  0  0  0  0  0  0  0
    4.8059   -8.2534    0.0000 H   0  0  0  0  0  0  0  0  0  0  0  0
    8.7839    8.2534    0.0000 H   0  0  0  0  0  0  0  0  0  0  0  0
    4.8059   -5.6334    0.0000 H   0  0  0  0  0  0  0  0  0  0  0  0
    8.7839    5.6334    0.0000 H   0  0  0  0  0  0  0  0  0  0  0  0
    5.6720   -7.1334    0.0000 H   0  0  0  0  0  0  0  0  0  0  0  0
   10.7238    7.1334    0.0000 H   0  0  0  0  0  0  0  0  0  0  0  0
    6.6116   -8.0510    0.0000 H   0  0  0  0  0  0  0  0  0  0  0  0
    6.2131   -7.3607    0.0000 H   0  0  0  0  0  0  0  0  0  0  0  0
   11.4515    8.4183    0.0000 H   0  0  0  0  0  0  0  0  0  0  0  0
   10.6544    8.4183    0.0000 H   0  0  0  0  0  0  0  0  0  0  0  0
    5.6720   -4.7534    0.0000 H   0  0  0  0  0  0  0  0  0  0  0  0
    7.9179    4.7534    0.0000 H   0  0  0  0  0  0  0  0  0  0  0  0
    2.5369   -8.5634    0.0000 H   0  0  0  0  0  0  0  0  0  0  0  0
    2.0000   -6.2534    0.0000 H   0  0  0  0  0  0  0  0  0  0  0  0
    7.5888    8.5634    0.0000 H   0  0  0  0  0  0  0  0  0  0  0  0
    7.0519    6.2534    0.0000 H   0  0  0  0  0  0  0  0  0  0  0  0
    3.7320   -9.2534    0.0000 H   0  0  0  0  0  0  0  0  0  0  0  0
    9.8578    9.2534    0.0000 H   0  0  0  0  0  0  0  0  0  0  0  0
    2.8660   -4.7534    0.0000 H   0  0  0  0  0  0  0  0  0  0  0  0
   10.7238    4.7534    0.0000 H   0  0  0  0  0  0  0  0  0  0  0  0
    2.8660   -3.1334    0.0000 H   0  0  0  0  0  0  0  0  0  0  0  0
   10.7238    3.1334    0.0000 H   0  0  0  0  0  0  0  0  0  0  0  0
    6.2131   -3.5260    0.0000 H   0  0  0  0  0  0  0  0  0  0  0  0
    6.6116   -2.8357    0.0000 H   0  0  0  0  0  0  0  0  0  0  0  0
    7.3768    3.5260    0.0000 H   0  0  0  0  0  0  0  0  0  0  0  0
    6.9782    2.8357    0.0000 H   0  0  0  0  0  0  0  0  0  0  0  0
    6.5380   -9.2534    0.0000 H   0  0  0  0  0  0  0  0  0  0  0  0
   12.4559    7.7534    0.0000 H   0  0  0  0  0  0  0  0  0  0  0  0
    4.8890   -1.9434    0.0000 H   0  0  0  0  0  0  0  0  0  0  0  0
    4.2690   -1.3234    0.0000 H   0  0  0  0  0  0  0  0  0  0  0  0
    3.6490   -1.9434    0.0000 H   0  0  0  0  0  0  0  0  0  0  0  0
    8.7009    1.9434    0.0000 H   0  0  0  0  0  0  0  0  0  0  0  0
    9.3209    1.3234    0.0000 H   0  0  0  0  0  0  0  0  0  0  0  0
    9.9409    1.9434    0.0000 H   0  0  0  0  0  0  0  0  0  0  0  0
    4.6024   -1.5472    0.0000 H   0  0  0  0  0  0  0  0  0  0  0  0
    8.9875    1.5472    0.0000 H   0  0  0  0  0  0  0  0  0  0  0  0
    5.1366    0.0971    0.0000 H   0  0  0  0  0  0  0  0  0  0  0  0
    8.4532   -0.0971    0.0000 H   0  0  0  0  0  0  0  0  0  0  0  0
  1 41  1  0  0  0  0
  1 43  1  0  0  0  0
  2 42  1  0  0  0  0
  2 44  1  0  0  0  0
  3 19  1  0  0  0  0
  3 21  1  0  0  0  0
  4 20  1  0  0  0  0
  4 22  1  0  0  0  0
 13  5  1  6  0  0  0
  5 65  1  0  0  0  0
 14  6  1  1  0  0  0
  6 66  1  0  0  0  0
 15  7  1  1  0  0  0
  7 67  1  0  0  0  0
 16  8  1  6  0  0  0
  8 68  1  0  0  0  0
 17  9  1  1  0  0  0
  9 69  1  0  0  0  0
 18 10  1  6  0  0  0
 10 70  1  0  0  0  0
 11 25  1  0  0  0  0
 11 79  1  0  0  0  0
 12 26  1  0  0  0  0
 12 80  1  0  0  0  0
 13 14  1  0  0  0  0
 13 17  1  0  0  0  0
 13 49  1  0  0  0  0
 14 19  1  0  0  0  0
 14 50  1  0  0  0  0
 15 16  1  0  0  0  0
 15 18  1  0  0  0  0
 15 51  1  0  0  0  0
 16 20  1  0  0  0  0
 16 52  1  0  0  0  0
 17 21  1  0  0  0  0
 17 53  1  0  0  0  0
 18 22  1  0  0  0  0
 18 54  1  0  0  0  0
 19 23  1  6  0  0  0
 19 55  1  0  0  0  0
 20 24  1  1  0  0  0
 20 56  1  0  0  0  0
 21 25  1  6  0  0  0
 21 57  1  0  0  0  0
 22 26  1  1  0  0  0
 22 58  1  0  0  0  0
 23 27  2  0  0  0  0
 23 29  1  0  0  0  0
 24 28  2  0  0  0  0
 24 30  1  0  0  0  0
 25 59  1  0  0  0  0
 25 60  1  0  0  0  0
 26 61  1  0  0  0  0
 26 62  1  0  0  0  0
 27 31  1  0  0  0  0
 27 63  1  0  0  0  0
 28 32  1  0  0  0  0
 28 64  1  0  0  0  0
 29 35  2  0  0  0  0
 29 71  1  0  0  0  0
 30 36  2  0  0  0  0
 30 72  1  0  0  0  0
 31 33  2  0  0  0  0
 31 37  1  0  0  0  0
 32 34  2  0  0  0  0
 32 38  1  0  0  0  0
 33 35  1  0  0  0  0
 33 39  1  0  0  0  0
 34 36  1  0  0  0  0
 34 40  1  0  0  0  0
 35 73  1  0  0  0  0
 36 74  1  0  0  0  0
 37 41  1  0  0  0  0
 37 75  1  0  0  0  0
 37 76  1  0  0  0  0
 38 42  1  0  0  0  0
 38 77  1  0  0  0  0
 38 78  1  0  0  0  0
 39 81  1  0  0  0  0
 39 82  1  0  0  0  0
 39 83  1  0  0  0  0
 40 84  1  0  0  0  0
 40 85  1  0  0  0  0
 40 86  1  0  0  0  0
 41 45  2  0  0  0  0
 42 46  2  0  0  0  0
 43 44  1  0  0  0  0
 43 47  2  0  0  0  0
 44 48  2  0  0  0  0
 45 47  1  0  0  0  0
 45 87  1  0  0  0  0
 46 48  1  0  0  0  0
 46 88  1  0  0  0  0
 47 89  1  0  0  0  0
 48 90  1  0  0  0  0
M  END
> <PUBCHEM_COMPOUND_CID>
78358462

> <PUBCHEM_COMPOUND_CANONICALIZED>
1

> <PUBCHEM_CACTVS_COMPLEXITY>
949

> <PUBCHEM_CACTVS_HBOND_ACCEPTOR>
12

> <PUBCHEM_CACTVS_HBOND_DONOR>
8

> <PUBCHEM_CACTVS_ROTATABLE_BOND>
9

> <PUBCHEM_CACTVS_SUBSKEYS>
AAADcfB8PABgAAAAAAAAAAAAAAAAASJAAAA0aIEAAAAAAAAB9AAAGgQACAAADBSg2AIyAYAABgiEAiBCAAADAIAgCBBIiBgACIgJNiKgMRiCcAAlwAErqAfA4PQOwAACAAAQAACAAAQAACAAAAAAAAAAAA==

> <PUBCHEM_IUPAC_OPENEYE_NAME>
(2R,3S,4R,5R,6S)-2-(hydroxymethyl)-6-[4-methyl-3-[[5-[5-[[2-methyl-5-[(2S,3R,4R,5S,6R)-3,4,5-trihydroxy-6-(hydroxymethyl)tetrahydropyran-2-yl]phenyl]methyl]-2-thienyl]-2-thienyl]methyl]phenyl]tetrahydropyran-3,4,5-triol

> <PUBCHEM_IUPAC_CAS_NAME>
(2R,3S,4R,5R,6S)-2-(hydroxymethyl)-6-[4-methyl-3-[[5-[5-[[2-methyl-5-[(2S,3R,4R,5S,6R)-3,4,5-trihydroxy-6-(hydroxymethyl)-2-oxanyl]phenyl]methyl]-2-thiophenyl]-2-thiophenyl]methyl]phenyl]oxane-3,4,5-triol

> <PUBCHEM_IUPAC_NAME_MARKUP>
(2<I>R</I>,3<I>S</I>,4<I>R</I>,5<I>R</I>,6<I>S</I>)-2-(hydroxymethyl)-6-[4-methyl-3-[[5-[5-[[2-methyl-5-[(2<I>S</I>,3<I>R</I>,4<I>R</I>,5<I>S</I>,6<I>R</I>)-3,4,5-trihydroxy-6-(hydroxymethyl)oxan-2-yl]phenyl]methyl]thiophen-2-yl]thiophen-2-yl]methyl]phenyl]oxane-3,4,5-triol

> <PUBCHEM_IUPAC_NAME>
(2R,3S,4R,5R,6S)-2-(hydroxymethyl)-6-[4-methyl-3-[[5-[5-[[2-methyl-5-[(2S,3R,4R,5S,6R)-3,4,5-trihydroxy-6-(hydroxymethyl)oxan-2-yl]phenyl]methyl]thiophen-2-yl]thiophen-2-yl]methyl]phenyl]oxane-3,4,5-triol

> <PUBCHEM_IUPAC_SYSTEMATIC_NAME>
(2R,3S,4R,5R,6S)-2-(hydroxymethyl)-6-[3-[[5-[5-[[5-[(2S,3R,4R,5S,6R)-6-(hydroxymethyl)-3,4,5-tris(oxidanyl)oxan-2-yl]-2-methyl-phenyl]methyl]thiophen-2-yl]thiophen-2-yl]methyl]-4-methyl-phenyl]oxane-3,4,5-triol

> <PUBCHEM_IUPAC_TRADITIONAL_NAME>
(2S,3R,4R,5S,6R)-2-[4-methyl-3-[[5-[5-[2-methyl-5-[(2S,3R,4R,5S,6R)-3,4,5-trihydroxy-6-methylol-tetrahydropyran-2-yl]benzyl]-2-thienyl]-2-thienyl]methyl]phenyl]-6-methylol-tetrahydropyran-3,4,5-triol

> <PUBCHEM_IUPAC_INCHI>
InChI=1S/C36H42O10S2/c1-17-3-5-19(35-33(43)31(41)29(39)25(15-37)45-35)11-21(17)13-23-7-9-27(47-23)28-10-8-24(48-28)14-22-12-20(6-4-18(22)2)36-34(44)32(42)30(40)26(16-38)46-36/h3-12,25-26,29-44H,13-16H2,1-2H3/t25-,26-,29-,30-,31+,32+,33-,34-,35+,36+/m1/s1

> <PUBCHEM_IUPAC_INCHIKEY>
CLCYUYRCLACKBT-AJQHFSOTSA-N

> <PUBCHEM_XLOGP3_AA>
2.7

> <PUBCHEM_EXACT_MASS>
698.22193988

> <PUBCHEM_MOLECULAR_FORMULA>
C36H42O10S2

> <PUBCHEM_MOLECULAR_WEIGHT>
698.8

> <PUBCHEM_OPENEYE_CAN_SMILES>
CC1=C(C=C(C=C1)C2C(C(C(C(O2)CO)O)O)O)CC3=CC=C(S3)C4=CC=C(S4)CC5=C(C=CC(=C5)C6C(C(C(C(O6)CO)O)O)O)C

> <PUBCHEM_OPENEYE_ISO_SMILES>
CC1=C(C=C(C=C1)[C@H]2[C@@H]([C@H]([C@@H]([C@H](O2)CO)O)O)O)CC3=CC=C(S3)C4=CC=C(S4)CC5=C(C=CC(=C5)[C@H]6[C@@H]([C@H]([C@@H]([C@H](O6)CO)O)O)O)C

> <PUBCHEM_CACTVS_TPSA>
237

> <PUBCHEM_MONOISOTOPIC_WEIGHT>
698.22193988

> <PUBCHEM_TOTAL_CHARGE>
0

> <PUBCHEM_HEAVY_ATOM_COUNT>
48

> <PUBCHEM_ATOM_DEF_STEREO_COUNT>
10

> <PUBCHEM_ATOM_UDEF_STEREO_COUNT>
0

> <PUBCHEM_BOND_DEF_STEREO_COUNT>
0

> <PUBCHEM_BOND_UDEF_STEREO_COUNT>
0

> <PUBCHEM_ISOTOPIC_ATOM_COUNT>
0

> <PUBCHEM_COMPONENT_COUNT>
1

> <PUBCHEM_CACTVS_TAUTO_COUNT>
-1

> <PUBCHEM_COORDINATE_TYPE>
1
5
255

> <PUBCHEM_BONDANNOTATIONS>
1  41  8
1  43  8
18  10  6
19  23  6
2  42  8
2  44  8
20  24  5
21  25  6
22  26  5
23  27  8
23  29  8
24  28  8
24  30  8
27  31  8
28  32  8
29  35  8
30  36  8
31  33  8
32  34  8
33  35  8
34  36  8
41  45  8
42  46  8
43  47  8
44  48  8
45  47  8
46  48  8
13  5  6
14  6  5
15  7  5
16  8  6
17  9  5

$$$$
