 
  -OEChem-10192103292D

 75 78  0     1  0  0  0  0  0999 V2000
    5.1350   -3.5000    0.0000 O   0  0  0  0  0  0  0  0  0  0  0  0
    9.4651    4.0000    0.0000 O   0  0  0  0  0  0  0  0  0  0  0  0
    3.4030   -5.5000    0.0000 O   0  0  0  0  0  0  0  0  0  0  0  0
    5.1350   -6.5000    0.0000 O   0  0  0  0  0  0  0  0  0  0  0  0
   10.3312    6.5000    0.0000 O   0  0  0  0  0  0  0  0  0  0  0  0
   12.0632    5.5000    0.0000 O   0  0  0  0  0  0  0  0  0  0  0  0
    6.8671   -3.5000    0.0000 O   0  0  0  0  0  0  0  0  0  0  0  0
   10.3312    2.5000    0.0000 O   0  0  0  0  0  0  0  0  0  0  0  0
    6.8671   -5.5000    0.0000 O   0  0  0  0  0  0  0  0  0  0  0  0
   12.0632    3.5000    0.0000 O   0  0  0  0  0  0  0  0  0  0  0  0
    2.5369   -4.0000    0.0000 O   0  0  0  0  0  0  0  0  0  0  0  0
    8.5991    6.5000    0.0000 O   0  0  0  0  0  0  0  0  0  0  0  0
    6.8671    0.5000    0.0000 O   0  0  0  0  0  0  0  0  0  0  0  0
    8.5991   -2.5000    0.0000 O   0  0  0  0  0  0  0  0  0  0  0  0
    8.5991   -0.5000    0.0000 O   0  0  0  0  0  0  0  0  0  0  0  0
    4.2690   -5.0000    0.0000 C   0  0  1  0  0  0  0  0  0  0  0  0
    5.1350   -5.5000    0.0000 C   0  0  1  0  0  0  0  0  0  0  0  0
   10.3312    5.5000    0.0000 C   0  0  1  0  0  0  0  0  0  0  0  0
   11.1972    5.0000    0.0000 C   0  0  1  0  0  0  0  0  0  0  0  0
    4.2690   -4.0000    0.0000 C   0  0  1  0  0  0  0  0  0  0  0  0
    6.0010   -5.0000    0.0000 C   0  0  2  0  0  0  0  0  0  0  0  0
    9.4651    5.0000    0.0000 C   0  0  1  0  0  0  0  0  0  0  0  0
   11.1972    4.0000    0.0000 C   0  0  2  0  0  0  0  0  0  0  0  0
    6.0010   -4.0000    0.0000 C   0  0  1  0  0  0  0  0  0  0  0  0
   10.3312    3.5000    0.0000 C   0  0  1  0  0  0  0  0  0  0  0  0
    3.4030   -3.5000    0.0000 C   0  0  0  0  0  0  0  0  0  0  0  0
    8.5991    5.5000    0.0000 C   0  0  0  0  0  0  0  0  0  0  0  0
    6.8671   -2.5000    0.0000 C   0  0  0  0  0  0  0  0  0  0  0  0
    9.4651    2.0000    0.0000 C   0  0  0  0  0  0  0  0  0  0  0  0
    7.7331   -2.0000    0.0000 C   0  0  0  0  0  0  0  0  0  0  0  0
    6.0010   -2.0000    0.0000 C   0  0  0  0  0  0  0  0  0  0  0  0
    9.4651    1.0000    0.0000 C   0  0  0  0  0  0  0  0  0  0  0  0
    8.5991    2.5000    0.0000 C   0  0  0  0  0  0  0  0  0  0  0  0
    8.5991    0.5000    0.0000 C   0  0  0  0  0  0  0  0  0  0  0  0
    7.7331   -1.0000    0.0000 C   0  0  0  0  0  0  0  0  0  0  0  0
    6.8671   -0.5000    0.0000 C   0  0  0  0  0  0  0  0  0  0  0  0
    7.7331    1.0000    0.0000 C   0  0  0  0  0  0  0  0  0  0  0  0
    6.0010   -1.0000    0.0000 C   0  0  0  0  0  0  0  0  0  0  0  0
    7.7331    2.0000    0.0000 C   0  0  0  0  0  0  0  0  0  0  0  0
    9.4651   -2.0000    0.0000 C   0  0  0  0  0  0  0  0  0  0  0  0
    9.4651   -1.0000    0.0000 C   0  0  0  0  0  0  0  0  0  0  0  0
    4.2690   -5.6200    0.0000 H   0  0  0  0  0  0  0  0  0  0  0  0
    4.5981   -5.8100    0.0000 H   0  0  0  0  0  0  0  0  0  0  0  0
   10.8681    5.8100    0.0000 H   0  0  0  0  0  0  0  0  0  0  0  0
   11.7341    4.6900    0.0000 H   0  0  0  0  0  0  0  0  0  0  0  0
    4.2690   -3.3800    0.0000 H   0  0  0  0  0  0  0  0  0  0  0  0
    6.0010   -5.6200    0.0000 H   0  0  0  0  0  0  0  0  0  0  0  0
    8.9282    4.6900    0.0000 H   0  0  0  0  0  0  0  0  0  0  0  0
   11.7341    4.3100    0.0000 H   0  0  0  0  0  0  0  0  0  0  0  0
    6.0010   -3.3800    0.0000 H   0  0  0  0  0  0  0  0  0  0  0  0
   10.8681    3.1900    0.0000 H   0  0  0  0  0  0  0  0  0  0  0  0
    3.8015   -3.0250    0.0000 H   0  0  0  0  0  0  0  0  0  0  0  0
    3.0044   -3.0250    0.0000 H   0  0  0  0  0  0  0  0  0  0  0  0
    7.9885    5.6077    0.0000 H   0  0  0  0  0  0  0  0  0  0  0  0
    8.3871    4.9174    0.0000 H   0  0  0  0  0  0  0  0  0  0  0  0
    3.4030   -6.1200    0.0000 H   0  0  0  0  0  0  0  0  0  0  0  0
    4.5981   -6.8100    0.0000 H   0  0  0  0  0  0  0  0  0  0  0  0
   10.8681    6.8100    0.0000 H   0  0  0  0  0  0  0  0  0  0  0  0
   12.0632    6.1200    0.0000 H   0  0  0  0  0  0  0  0  0  0  0  0
    6.8671   -6.1200    0.0000 H   0  0  0  0  0  0  0  0  0  0  0  0
   12.6002    3.8100    0.0000 H   0  0  0  0  0  0  0  0  0  0  0  0
    2.0000   -3.6900    0.0000 H   0  0  0  0  0  0  0  0  0  0  0  0
    8.0622    6.8100    0.0000 H   0  0  0  0  0  0  0  0  0  0  0  0
    5.4641   -2.3100    0.0000 H   0  0  0  0  0  0  0  0  0  0  0  0
   10.0021    0.6900    0.0000 H   0  0  0  0  0  0  0  0  0  0  0  0
    8.5991    3.1200    0.0000 H   0  0  0  0  0  0  0  0  0  0  0  0
    8.2700   -0.6900    0.0000 H   0  0  0  0  0  0  0  0  0  0  0  0
    5.4641   -0.6900    0.0000 H   0  0  0  0  0  0  0  0  0  0  0  0
    7.1962    2.3100    0.0000 H   0  0  0  0  0  0  0  0  0  0  0  0
    9.7751   -2.5369    0.0000 H   0  0  0  0  0  0  0  0  0  0  0  0
   10.0021   -1.6900    0.0000 H   0  0  0  0  0  0  0  0  0  0  0  0
    9.1551   -1.4631    0.0000 H   0  0  0  0  0  0  0  0  0  0  0  0
    9.1551   -1.5369    0.0000 H   0  0  0  0  0  0  0  0  0  0  0  0
   10.0021   -1.3100    0.0000 H   0  0  0  0  0  0  0  0  0  0  0  0
    9.7751   -0.4631    0.0000 H   0  0  0  0  0  0  0  0  0  0  0  0
  1 20  1  0  0  0  0
  1 24  1  0  0  0  0
  2 22  1  0  0  0  0
  2 25  1  0  0  0  0
 16  3  1  6  0  0  0
  3 56  1  0  0  0  0
 17  4  1  1  0  0  0
  4 57  1  0  0  0  0
 18  5  1  1  0  0  0
  5 58  1  0  0  0  0
 19  6  1  6  0  0  0
  6 59  1  0  0  0  0
 24  7  1  1  0  0  0
  7 28  1  0  0  0  0
 25  8  1  6  0  0  0
  8 29  1  0  0  0  0
 21  9  1  6  0  0  0
  9 60  1  0  0  0  0
 23 10  1  1  0  0  0
 10 61  1  0  0  0  0
 11 26  1  0  0  0  0
 11 62  1  0  0  0  0
 12 27  1  0  0  0  0
 12 63  1  0  0  0  0
 13 36  1  0  0  0  0
 13 37  1  0  0  0  0
 14 30  1  0  0  0  0
 14 40  1  0  0  0  0
 15 34  1  0  0  0  0
 15 41  1  0  0  0  0
 16 17  1  0  0  0  0
 16 20  1  0  0  0  0
 16 42  1  0  0  0  0
 17 21  1  0  0  0  0
 17 43  1  0  0  0  0
 18 19  1  0  0  0  0
 18 22  1  0  0  0  0
 18 44  1  0  0  0  0
 19 23  1  0  0  0  0
 19 45  1  0  0  0  0
 20 26  1  1  0  0  0
 20 46  1  0  0  0  0
 21 24  1  0  0  0  0
 21 47  1  0  0  0  0
 22 27  1  6  0  0  0
 22 48  1  0  0  0  0
 23 25  1  0  0  0  0
 23 49  1  0  0  0  0
 24 50  1  0  0  0  0
 25 51  1  0  0  0  0
 26 52  1  0  0  0  0
 26 53  1  0  0  0  0
 27 54  1  0  0  0  0
 27 55  1  0  0  0  0
 28 30  2  0  0  0  0
 28 31  1  0  0  0  0
 29 32  2  0  0  0  0
 29 33  1  0  0  0  0
 30 35  1  0  0  0  0
 31 38  2  0  0  0  0
 31 64  1  0  0  0  0
 32 34  1  0  0  0  0
 32 65  1  0  0  0  0
 33 39  2  0  0  0  0
 33 66  1  0  0  0  0
 34 37  2  0  0  0  0
 35 36  2  0  0  0  0
 35 67  1  0  0  0  0
 36 38  1  0  0  0  0
 37 39  1  0  0  0  0
 38 68  1  0  0  0  0
 39 69  1  0  0  0  0
 40 70  1  0  0  0  0
 40 71  1  0  0  0  0
 40 72  1  0  0  0  0
 41 73  1  0  0  0  0
 41 74  1  0  0  0  0
 41 75  1  0  0  0  0
M  END
> <PUBCHEM_COMPOUND_CID>
70694646

> <PUBCHEM_COMPOUND_CANONICALIZED>
1

> <PUBCHEM_CACTVS_COMPLEXITY>
792

> <PUBCHEM_CACTVS_HBOND_ACCEPTOR>
15

> <PUBCHEM_CACTVS_HBOND_DONOR>
8

> <PUBCHEM_CACTVS_ROTATABLE_BOND>
10

> <PUBCHEM_CACTVS_SUBSKEYS>
AAADcfB4PAAAAAAAAAAAAAAAAAAAAAAAAAA0aIEAAAAAAAABQAAAGgAACAAACBSwkAMyDoAABgCAACBCAAACCAAgIAAIiAAGiIgdNyKEMRqieCKlwBUPqAfAYAwAAQAACAAAQAACAAAQAACAAAAAAAAAAA==

> <PUBCHEM_IUPAC_OPENEYE_NAME>
(2R,3S,4S,5R,6S)-2-(hydroxymethyl)-6-[3-methoxy-4-[3-methoxy-4-[(2S,3R,4S,5S,6R)-3,4,5-trihydroxy-6-(hydroxymethyl)tetrahydropyran-2-yl]oxy-phenoxy]phenoxy]tetrahydropyran-3,4,5-triol

> <PUBCHEM_IUPAC_CAS_NAME>
(2R,3S,4S,5R,6S)-2-(hydroxymethyl)-6-[3-methoxy-4-[3-methoxy-4-[[(2S,3R,4S,5S,6R)-3,4,5-trihydroxy-6-(hydroxymethyl)-2-oxanyl]oxy]phenoxy]phenoxy]oxane-3,4,5-triol

> <PUBCHEM_IUPAC_NAME_MARKUP>
(2<I>R</I>,3<I>S</I>,4<I>S</I>,5<I>R</I>,6<I>S</I>)-2-(hydroxymethyl)-6-[3-methoxy-4-[3-methoxy-4-[(2<I>S</I>,3<I>R</I>,4<I>S</I>,5<I>S</I>,6<I>R</I>)-3,4,5-trihydroxy-6-(hydroxymethyl)oxan-2-yl]oxyphenoxy]phenoxy]oxane-3,4,5-triol

> <PUBCHEM_IUPAC_NAME>
(2R,3S,4S,5R,6S)-2-(hydroxymethyl)-6-[3-methoxy-4-[3-methoxy-4-[(2S,3R,4S,5S,6R)-3,4,5-trihydroxy-6-(hydroxymethyl)oxan-2-yl]oxyphenoxy]phenoxy]oxane-3,4,5-triol

> <PUBCHEM_IUPAC_SYSTEMATIC_NAME>
(2R,3S,4S,5R,6S)-2-(hydroxymethyl)-6-[4-[4-[(2S,3R,4S,5S,6R)-6-(hydroxymethyl)-3,4,5-tris(oxidanyl)oxan-2-yl]oxy-3-methoxy-phenoxy]-3-methoxy-phenoxy]oxane-3,4,5-triol

> <PUBCHEM_IUPAC_TRADITIONAL_NAME>
(2S,3R,4S,5S,6R)-2-[3-methoxy-4-[3-methoxy-4-[(2S,3R,4S,5S,6R)-3,4,5-trihydroxy-6-methylol-tetrahydropyran-2-yl]oxy-phenoxy]phenoxy]-6-methylol-tetrahydropyran-3,4,5-triol

> <PUBCHEM_IUPAC_INCHI>
InChI=1S/C26H34O15/c1-35-15-8-12(38-25-23(33)21(31)19(29)17(9-27)40-25)4-5-13(15)37-11-3-6-14(16(7-11)36-2)39-26-24(34)22(32)20(30)18(10-28)41-26/h3-8,17-34H,9-10H2,1-2H3/t17-,18-,19-,20-,21+,22+,23-,24-,25-,26-/m1/s1

> <PUBCHEM_IUPAC_INCHIKEY>
BRGMLXAIQVVQOP-PCIRLDFKSA-N

> <PUBCHEM_XLOGP3_AA>
-0.9

> <PUBCHEM_EXACT_MASS>
586.18977037

> <PUBCHEM_MOLECULAR_FORMULA>
C26H34O15

> <PUBCHEM_MOLECULAR_WEIGHT>
586.5

> <PUBCHEM_OPENEYE_CAN_SMILES>
COC1=C(C=CC(=C1)OC2=C(C=C(C=C2)OC3C(C(C(C(O3)CO)O)O)O)OC)OC4C(C(C(C(O4)CO)O)O)O

> <PUBCHEM_OPENEYE_ISO_SMILES>
COC1=C(C=CC(=C1)OC2=C(C=C(C=C2)O[C@H]3[C@@H]([C@H]([C@@H]([C@H](O3)CO)O)O)O)OC)O[C@H]4[C@@H]([C@H]([C@@H]([C@H](O4)CO)O)O)O

> <PUBCHEM_CACTVS_TPSA>
226

> <PUBCHEM_MONOISOTOPIC_WEIGHT>
586.18977037

> <PUBCHEM_TOTAL_CHARGE>
0

> <PUBCHEM_HEAVY_ATOM_COUNT>
41

> <PUBCHEM_ATOM_DEF_STEREO_COUNT>
10

> <PUBCHEM_ATOM_UDEF_STEREO_COUNT>
0

> <PUBCHEM_BOND_DEF_STEREO_COUNT>
0

> <PUBCHEM_BOND_UDEF_STEREO_COUNT>
0

> <PUBCHEM_ISOTOPIC_ATOM_COUNT>
0

> <PUBCHEM_COMPONENT_COUNT>
1

> <PUBCHEM_CACTVS_TAUTO_COUNT>
-1

> <PUBCHEM_COORDINATE_TYPE>
1
5
255

> <PUBCHEM_BONDANNOTATIONS>
23  10  5
20  26  5
22  27  6
28  30  8
28  31  8
29  32  8
29  33  8
16  3  6
30  35  8
31  38  8
32  34  8
33  39  8
34  37  8
35  36  8
36  38  8
37  39  8
17  4  5
18  5  5
19  6  6
24  7  5
25  8  6
21  9  6

$$$$
