 
  -OEChem-10192104342D

 86 90  0     1  0  0  0  0  0999 V2000
    8.9578    1.2196    0.0000 O   0  0  0  0  0  0  0  0  0  0  0  0
    6.9670   -1.4784    0.0000 O   0  0  0  0  0  0  0  0  0  0  0  0
    8.0918    2.7196    0.0000 O   0  0  0  0  0  0  0  0  0  0  0  0
    8.4670   -0.6124    0.0000 O   0  0  0  0  0  0  0  0  0  0  0  0
   10.6899    0.2196    0.0000 O   0  0  0  0  0  0  0  0  0  0  0  0
    5.9670   -3.2104    0.0000 O   0  0  0  0  0  0  0  0  0  0  0  0
   10.1899    4.0856    0.0000 O   0  0  0  0  0  0  0  0  0  0  0  0
    9.8330   -2.7104    0.0000 O   0  0  0  0  0  0  0  0  0  0  0  0
   12.4219    1.2196    0.0000 O   0  0  0  0  0  0  0  0  0  0  0  0
    6.9670   -4.9425    0.0000 O   0  0  0  0  0  0  0  0  0  0  0  0
    3.2599    3.2104    0.0000 O   0  0  0  0  0  0  0  0  0  0  0  0
    2.5369    0.5125    0.0000 O   0  0  0  0  0  0  0  0  0  0  0  0
    4.2599    4.9425    0.0000 O   0  0  0  0  0  0  0  0  0  0  0  0
    2.5369   -1.4875    0.0000 O   0  0  0  0  0  0  0  0  0  0  0  0
   12.1899    4.0856    0.0000 O   0  0  0  0  0  0  0  0  0  0  0  0
    9.8330   -4.7104    0.0000 O   0  0  0  0  0  0  0  0  0  0  0  0
   10.6899    4.9516    0.0000 O   0  0  0  0  0  0  0  0  0  0  0  0
   10.6990   -3.2104    0.0000 O   0  0  0  0  0  0  0  0  0  0  0  0
    6.2599    1.4784    0.0000 C   0  0  2  0  0  0  0  0  0  0  0  0
    6.0010    0.5125    0.0000 C   0  0  1  0  0  0  0  0  0  0  0  0
    7.2258    1.2196    0.0000 C   0  0  1  0  0  0  0  0  0  0  0  0
    6.9670    0.2537    0.0000 C   0  0  2  0  0  0  0  0  0  0  0  0
    5.7599    2.3444    0.0000 C   0  0  0  0  0  0  0  0  0  0  0  0
    5.1350    0.0125    0.0000 C   0  0  0  0  0  0  0  0  0  0  0  0
    8.0918    1.7196    0.0000 C   0  0  0  0  0  0  0  0  0  0  0  0
    7.4670   -0.6124    0.0000 C   0  0  0  0  0  0  0  0  0  0  0  0
    9.8239    1.7196    0.0000 C   0  0  1  0  0  0  0  0  0  0  0  0
    7.4670   -2.3444    0.0000 C   0  0  1  0  0  0  0  0  0  0  0  0
    4.7599    2.3444    0.0000 C   0  0  0  0  0  0  0  0  0  0  0  0
    4.2690    0.5125    0.0000 C   0  0  0  0  0  0  0  0  0  0  0  0
    6.2599    3.2104    0.0000 C   0  0  0  0  0  0  0  0  0  0  0  0
    5.1350   -0.9875    0.0000 C   0  0  0  0  0  0  0  0  0  0  0  0
    9.8239    2.7196    0.0000 C   0  0  0  0  0  0  0  0  0  0  0  0
    8.4670   -2.3444    0.0000 C   0  0  0  0  0  0  0  0  0  0  0  0
   10.6899    1.2196    0.0000 C   0  0  2  0  0  0  0  0  0  0  0  0
    6.9670   -3.2104    0.0000 C   0  0  2  0  0  0  0  0  0  0  0  0
   10.6899    3.2196    0.0000 C   0  0  1  0  0  0  0  0  0  0  0  0
    8.9670   -3.2104    0.0000 C   0  0  1  0  0  0  0  0  0  0  0  0
   11.5559    1.7196    0.0000 C   0  0  2  0  0  0  0  0  0  0  0  0
    7.4670   -4.0765    0.0000 C   0  0  2  0  0  0  0  0  0  0  0  0
   11.5559    2.7196    0.0000 C   0  0  0  0  0  0  0  0  0  0  0  0
    8.4670   -4.0765    0.0000 C   0  0  0  0  0  0  0  0  0  0  0  0
    4.2599    3.2104    0.0000 C   0  0  0  0  0  0  0  0  0  0  0  0
    3.4030    0.0125    0.0000 C   0  0  0  0  0  0  0  0  0  0  0  0
    5.7599    4.0765    0.0000 C   0  0  0  0  0  0  0  0  0  0  0  0
    4.2690   -1.4875    0.0000 C   0  0  0  0  0  0  0  0  0  0  0  0
    4.7599    4.0765    0.0000 C   0  0  0  0  0  0  0  0  0  0  0  0
    3.4030   -0.9875    0.0000 C   0  0  0  0  0  0  0  0  0  0  0  0
   11.1899    4.0856    0.0000 C   0  0  0  0  0  0  0  0  0  0  0  0
    9.8330   -3.7104    0.0000 C   0  0  0  0  0  0  0  0  0  0  0  0
    5.6452    1.3975    0.0000 H   0  0  0  0  0  0  0  0  0  0  0  0
    6.0820   -0.1022    0.0000 H   0  0  0  0  0  0  0  0  0  0  0  0
    7.7177    0.8421    0.0000 H   0  0  0  0  0  0  0  0  0  0  0  0
    6.5895   -0.2382    0.0000 H   0  0  0  0  0  0  0  0  0  0  0  0
    9.2869    2.0296    0.0000 H   0  0  0  0  0  0  0  0  0  0  0  0
    7.7770   -1.8075    0.0000 H   0  0  0  0  0  0  0  0  0  0  0  0
    4.4499    1.8075    0.0000 H   0  0  0  0  0  0  0  0  0  0  0  0
    4.2690    1.1325    0.0000 H   0  0  0  0  0  0  0  0  0  0  0  0
    6.8799    3.2104    0.0000 H   0  0  0  0  0  0  0  0  0  0  0  0
    5.6720   -1.2975    0.0000 H   0  0  0  0  0  0  0  0  0  0  0  0
    9.6118    3.3022    0.0000 H   0  0  0  0  0  0  0  0  0  0  0  0
    9.2133    2.6119    0.0000 H   0  0  0  0  0  0  0  0  0  0  0  0
    9.0496   -2.1324    0.0000 H   0  0  0  0  0  0  0  0  0  0  0  0
    8.3593   -1.7338    0.0000 H   0  0  0  0  0  0  0  0  0  0  0  0
   11.2268    0.9096    0.0000 H   0  0  0  0  0  0  0  0  0  0  0  0
    6.6570   -2.6735    0.0000 H   0  0  0  0  0  0  0  0  0  0  0  0
   12.0928    2.0296    0.0000 H   0  0  0  0  0  0  0  0  0  0  0  0
    6.8470   -4.0765    0.0000 H   0  0  0  0  0  0  0  0  0  0  0  0
   12.1665    2.6119    0.0000 H   0  0  0  0  0  0  0  0  0  0  0  0
   11.7680    3.3022    0.0000 H   0  0  0  0  0  0  0  0  0  0  0  0
    8.3593   -4.6871    0.0000 H   0  0  0  0  0  0  0  0  0  0  0  0
    9.0496   -4.2885    0.0000 H   0  0  0  0  0  0  0  0  0  0  0  0
    6.0699    4.6134    0.0000 H   0  0  0  0  0  0  0  0  0  0  0  0
    4.2690   -2.1075    0.0000 H   0  0  0  0  0  0  0  0  0  0  0  0
   11.2268   -0.0904    0.0000 H   0  0  0  0  0  0  0  0  0  0  0  0
    5.6570   -3.7474    0.0000 H   0  0  0  0  0  0  0  0  0  0  0  0
    9.5699    4.0856    0.0000 H   0  0  0  0  0  0  0  0  0  0  0  0
    9.8330   -2.0904    0.0000 H   0  0  0  0  0  0  0  0  0  0  0  0
   12.9589    1.5296    0.0000 H   0  0  0  0  0  0  0  0  0  0  0  0
    7.2770   -5.4794    0.0000 H   0  0  0  0  0  0  0  0  0  0  0  0
    2.9499    3.7474    0.0000 H   0  0  0  0  0  0  0  0  0  0  0  0
    2.0000    0.2025    0.0000 H   0  0  0  0  0  0  0  0  0  0  0  0
    4.5699    5.4794    0.0000 H   0  0  0  0  0  0  0  0  0  0  0  0
    2.5369   -2.1075    0.0000 H   0  0  0  0  0  0  0  0  0  0  0  0
   12.4999    4.6225    0.0000 H   0  0  0  0  0  0  0  0  0  0  0  0
   10.3699   -5.0204    0.0000 H   0  0  0  0  0  0  0  0  0  0  0  0
  1 25  1  0  0  0  0
 27  1  1  1  0  0  0
  2 26  1  0  0  0  0
 28  2  1  1  0  0  0
  3 25  2  0  0  0  0
  4 26  2  0  0  0  0
 35  5  1  6  0  0  0
  5 75  1  0  0  0  0
 36  6  1  6  0  0  0
  6 76  1  0  0  0  0
 37  7  1  6  0  0  0
  7 77  1  0  0  0  0
 38  8  1  6  0  0  0
  8 78  1  0  0  0  0
 39  9  1  6  0  0  0
  9 79  1  0  0  0  0
 40 10  1  6  0  0  0
 10 80  1  0  0  0  0
 11 43  1  0  0  0  0
 11 81  1  0  0  0  0
 12 44  1  0  0  0  0
 12 82  1  0  0  0  0
 13 47  1  0  0  0  0
 13 83  1  0  0  0  0
 14 48  1  0  0  0  0
 14 84  1  0  0  0  0
 15 49  1  0  0  0  0
 15 85  1  0  0  0  0
 16 50  1  0  0  0  0
 16 86  1  0  0  0  0
 17 49  2  0  0  0  0
 18 50  2  0  0  0  0
 19 20  1  0  0  0  0
 19 21  1  0  0  0  0
 19 23  1  1  0  0  0
 19 51  1  0  0  0  0
 20 22  1  0  0  0  0
 20 24  1  1  0  0  0
 20 52  1  0  0  0  0
 21 22  1  0  0  0  0
 21 25  1  6  0  0  0
 21 53  1  0  0  0  0
 22 26  1  6  0  0  0
 22 54  1  0  0  0  0
 23 29  2  0  0  0  0
 23 31  1  0  0  0  0
 24 30  2  0  0  0  0
 24 32  1  0  0  0  0
 27 33  1  0  0  0  0
 27 35  1  0  0  0  0
 27 55  1  0  0  0  0
 28 34  1  0  0  0  0
 28 36  1  0  0  0  0
 28 56  1  0  0  0  0
 29 43  1  0  0  0  0
 29 57  1  0  0  0  0
 30 44  1  0  0  0  0
 30 58  1  0  0  0  0
 31 45  2  0  0  0  0
 31 59  1  0  0  0  0
 32 46  2  0  0  0  0
 32 60  1  0  0  0  0
 33 37  1  0  0  0  0
 33 61  1  0  0  0  0
 33 62  1  0  0  0  0
 34 38  1  0  0  0  0
 34 63  1  0  0  0  0
 34 64  1  0  0  0  0
 35 39  1  0  0  0  0
 35 65  1  0  0  0  0
 36 40  1  0  0  0  0
 36 66  1  0  0  0  0
 37 41  1  0  0  0  0
 37 49  1  0  0  0  0
 38 42  1  0  0  0  0
 38 50  1  0  0  0  0
 39 41  1  0  0  0  0
 39 67  1  0  0  0  0
 40 42  1  0  0  0  0
 40 68  1  0  0  0  0
 41 69  1  0  0  0  0
 41 70  1  0  0  0  0
 42 71  1  0  0  0  0
 42 72  1  0  0  0  0
 43 47  2  0  0  0  0
 44 48  2  0  0  0  0
 45 47  1  0  0  0  0
 45 73  1  0  0  0  0
 46 48  1  0  0  0  0
 46 74  1  0  0  0  0
M  END
> <PUBCHEM_COMPOUND_CID>
132934567

> <PUBCHEM_COMPOUND_CANONICALIZED>
1

> <PUBCHEM_CACTVS_COMPLEXITY>
1200

> <PUBCHEM_CACTVS_HBOND_ACCEPTOR>
18

> <PUBCHEM_CACTVS_HBOND_DONOR>
12

> <PUBCHEM_CACTVS_ROTATABLE_BOND>
10

> <PUBCHEM_CACTVS_SUBSKEYS>
AAADcfB8PgAAAAAAAAAAAAAAAABgAAAAAAAwYMGAAAAAAAABQAAAGgAACAAADVSgmAIwDoAABgCIAiDSCAICAAAgIAAIiAFGiIgJNjKCERKCcAElwBELmAfL7PzOoAABAAAAQABCAAIQAACAAAAAAAAAAA==

> <PUBCHEM_IUPAC_OPENEYE_NAME>
(1R,3S,4S,5S)-3-[(1S,2R,3S,4R)-2-[(1S,2S,3S,5R)-5-carboxy-2,3,5-trihydroxy-cyclohexoxy]carbonyl-3,4-bis(3,4-dihydroxyphenyl)cyclobutanecarbonyl]oxy-1,4,5-trihydroxy-cyclohexanecarboxylic acid

> <PUBCHEM_IUPAC_CAS_NAME>
(1R,3S,4S,5S)-3-[[(1S,2R,3S,4R)-2-[[(1S,2S,3S,5R)-5-carboxy-2,3,5-trihydroxycyclohexyl]oxy-oxomethyl]-3,4-bis(3,4-dihydroxyphenyl)cyclobutyl]-oxomethoxy]-1,4,5-trihydroxy-1-cyclohexanecarboxylic acid

> <PUBCHEM_IUPAC_NAME_MARKUP>
(1<I>R</I>,3<I>S</I>,4<I>S</I>,5<I>S</I>)-3-[(1<I>S</I>,2<I>R</I>,3<I>S</I>,4<I>R</I>)-2-[(1<I>S</I>,2<I>S</I>,3<I>S</I>,5<I>R</I>)-5-carboxy-2,3,5-trihydroxycyclohexyl]oxycarbonyl-3,4-bis(3,4-dihydroxyphenyl)cyclobutanecarbonyl]oxy-1,4,5-trihydroxycyclohexane-1-carboxylic acid

> <PUBCHEM_IUPAC_NAME>
(1R,3S,4S,5S)-3-[(1S,2R,3S,4R)-2-[(1S,2S,3S,5R)-5-carboxy-2,3,5-trihydroxycyclohexyl]oxycarbonyl-3,4-bis(3,4-dihydroxyphenyl)cyclobutanecarbonyl]oxy-1,4,5-trihydroxycyclohexane-1-carboxylic acid

> <PUBCHEM_IUPAC_SYSTEMATIC_NAME>
(1R,3S,4S,5S)-3-[(1S,2R,3S,4R)-2,3-bis[3,4-bis(oxidanyl)phenyl]-4-[(1S,2S,3S,5R)-5-carboxy-2,3,5-tris(oxidanyl)cyclohexyl]oxycarbonyl-cyclobutyl]carbonyloxy-1,4,5-tris(oxidanyl)cyclohexane-1-carboxylic acid

> <PUBCHEM_IUPAC_TRADITIONAL_NAME>
(1R,3S,4S,5S)-3-[(1S,2R,3S,4R)-2-[(1S,2S,3S,5R)-5-carboxy-2,3,5-trihydroxy-cyclohexoxy]carbonyl-3,4-bis(3,4-dihydroxyphenyl)cyclobutanecarbonyl]oxy-1,4,5-trihydroxy-cyclohexanecarboxylic acid

> <PUBCHEM_IUPAC_INCHI>
InChI=1S/C32H36O18/c33-13-3-1-11(5-15(13)35)21-22(12-2-4-14(34)16(36)6-12)24(28(42)50-20-10-32(48,30(45)46)8-18(38)26(20)40)23(21)27(41)49-19-9-31(47,29(43)44)7-17(37)25(19)39/h1-6,17-26,33-40,47-48H,7-10H2,(H,43,44)(H,45,46)/t17-,18-,19-,20-,21-,22+,23+,24-,25-,26-,31+,32+/m0/s1

> <PUBCHEM_IUPAC_INCHIKEY>
KQVNSJABRWXFHQ-HGAYQEDOSA-N

> <PUBCHEM_XLOGP3_AA>
-2

> <PUBCHEM_EXACT_MASS>
708.19016430

> <PUBCHEM_MOLECULAR_FORMULA>
C32H36O18

> <PUBCHEM_MOLECULAR_WEIGHT>
708.6

> <PUBCHEM_OPENEYE_CAN_SMILES>
C1C(C(C(CC1(C(=O)O)O)OC(=O)C2C(C(C2C(=O)OC3CC(CC(C3O)O)(C(=O)O)O)C4=CC(=C(C=C4)O)O)C5=CC(=C(C=C5)O)O)O)O

> <PUBCHEM_OPENEYE_ISO_SMILES>
C1[C@@H]([C@@H]([C@H](C[C@]1(C(=O)O)O)OC(=O)[C@H]2[C@@H]([C@@H]([C@H]2C(=O)O[C@H]3C[C@](C[C@@H]([C@@H]3O)O)(C(=O)O)O)C4=CC(=C(C=C4)O)O)C5=CC(=C(C=C5)O)O)O)O

> <PUBCHEM_CACTVS_TPSA>
330

> <PUBCHEM_MONOISOTOPIC_WEIGHT>
708.19016430

> <PUBCHEM_TOTAL_CHARGE>
0

> <PUBCHEM_HEAVY_ATOM_COUNT>
50

> <PUBCHEM_ATOM_DEF_STEREO_COUNT>
12

> <PUBCHEM_ATOM_UDEF_STEREO_COUNT>
0

> <PUBCHEM_BOND_DEF_STEREO_COUNT>
0

> <PUBCHEM_BOND_UDEF_STEREO_COUNT>
0

> <PUBCHEM_ISOTOPIC_ATOM_COUNT>
0

> <PUBCHEM_COMPONENT_COUNT>
1

> <PUBCHEM_CACTVS_TAUTO_COUNT>
-1

> <PUBCHEM_COORDINATE_TYPE>
1
5
255

> <PUBCHEM_BONDANNOTATIONS>
27  1  5
40  10  6
19  23  5
28  2  5
20  24  5
21  25  6
22  26  6
23  29  8
23  31  8
24  30  8
24  32  8
29  43  8
30  44  8
31  45  8
32  46  8
43  47  8
44  48  8
45  47  8
46  48  8
35  5  6
36  6  6
37  7  6
38  8  6
39  9  6

$$$$
