 
  -OEChem-10192104012D

 41 42  0     1  0  0  0  0  0999 V2000
    7.0050    2.8461    0.0000 O   0  0  0  0  0  0  0  0  0  0  0  0
    3.8320    3.2638    0.0000 O   0  0  0  0  0  0  0  0  0  0  0  0
    7.7121    4.5532    0.0000 O   0  0  0  0  0  0  0  0  0  0  0  0
    2.0000    3.0226    0.0000 O   0  0  0  0  0  0  0  0  0  0  0  0
    3.8837    0.7247    0.0000 O   0  0  0  0  0  0  0  0  0  0  0  0
    2.9871   -2.6213    0.0000 O   0  0  0  0  0  0  0  0  0  0  0  0
    5.2979    2.1390    0.0000 C   0  0  0  0  0  0  0  0  0  0  0  0
    6.0050    2.8461    0.0000 C   0  0  3  0  0  0  0  0  0  0  0  0
    4.3320    2.3978    0.0000 C   0  0  3  0  0  0  0  0  0  0  0  0
    5.5567    1.1730    0.0000 C   0  0  0  0  0  0  0  0  0  0  0  0
    6.0050    3.8461    0.0000 C   0  0  0  0  0  0  0  0  0  0  0  0
    3.4659    1.8978    0.0000 C   0  0  0  0  0  0  0  0  0  0  0  0
    7.0050    3.8461    0.0000 C   0  0  0  0  0  0  0  0  0  0  0  0
    2.9659    2.7638    0.0000 C   0  0  0  0  0  0  0  0  0  0  0  0
    4.8496    0.4659    0.0000 C   0  0  0  0  0  0  0  0  0  0  0  0
    5.1084   -0.5000    0.0000 C   0  0  0  0  0  0  0  0  0  0  0  0
    4.4013   -1.2071    0.0000 C   0  0  0  0  0  0  0  0  0  0  0  0
    4.6601   -2.1730    0.0000 C   0  0  0  0  0  0  0  0  0  0  0  0
    3.9530   -2.8801    0.0000 C   0  0  0  0  0  0  0  0  0  0  0  0
    4.2118   -3.8461    0.0000 C   0  0  0  0  0  0  0  0  0  0  0  0
    3.5047   -4.5532    0.0000 C   0  0  0  0  0  0  0  0  0  0  0  0
    4.8595    1.7006    0.0000 H   0  0  0  0  0  0  0  0  0  0  0  0
    6.2422    2.2733    0.0000 H   0  0  0  0  0  0  0  0  0  0  0  0
    4.7094    2.8897    0.0000 H   0  0  0  0  0  0  0  0  0  0  0  0
    5.9123    0.6652    0.0000 H   0  0  0  0  0  0  0  0  0  0  0  0
    6.1186    1.4351    0.0000 H   0  0  0  0  0  0  0  0  0  0  0  0
    6.0050    4.4661    0.0000 H   0  0  0  0  0  0  0  0  0  0  0  0
    5.3850    3.8461    0.0000 H   0  0  0  0  0  0  0  0  0  0  0  0
    2.9290    1.5878    0.0000 H   0  0  0  0  0  0  0  0  0  0  0  0
    3.7759    1.3608    0.0000 H   0  0  0  0  0  0  0  0  0  0  0  0
    5.4640   -1.0079    0.0000 H   0  0  0  0  0  0  0  0  0  0  0  0
    5.6703   -0.2380    0.0000 H   0  0  0  0  0  0  0  0  0  0  0  0
    4.0457   -0.6992    0.0000 H   0  0  0  0  0  0  0  0  0  0  0  0
    3.8394   -1.4691    0.0000 H   0  0  0  0  0  0  0  0  0  0  0  0
    5.0157   -2.6809    0.0000 H   0  0  0  0  0  0  0  0  0  0  0  0
    5.2220   -1.9110    0.0000 H   0  0  0  0  0  0  0  0  0  0  0  0
    4.5674   -4.3539    0.0000 H   0  0  0  0  0  0  0  0  0  0  0  0
    4.7737   -3.5840    0.0000 H   0  0  0  0  0  0  0  0  0  0  0  0
    3.0663   -4.1148    0.0000 H   0  0  0  0  0  0  0  0  0  0  0  0
    3.0663   -4.9916    0.0000 H   0  0  0  0  0  0  0  0  0  0  0  0
    3.9431   -4.9916    0.0000 H   0  0  0  0  0  0  0  0  0  0  0  0
  1  8  1  0  0  0  0
  1 13  1  0  0  0  0
  2  9  1  0  0  0  0
  2 14  1  0  0  0  0
  3 13  2  0  0  0  0
  4 14  2  0  0  0  0
  5 15  2  0  0  0  0
  6 19  2  0  0  0  0
  7  8  1  0  0  0  0
  7  9  1  0  0  0  0
  7 10  1  0  0  0  0
  7 22  1  0  0  0  0
  8 11  1  0  0  0  0
  8 23  1  0  0  0  0
  9 12  1  0  0  0  0
  9 24  1  0  0  0  0
 10 15  1  0  0  0  0
 10 25  1  0  0  0  0
 10 26  1  0  0  0  0
 11 13  1  0  0  0  0
 11 27  1  0  0  0  0
 11 28  1  0  0  0  0
 12 14  1  0  0  0  0
 12 29  1  0  0  0  0
 12 30  1  0  0  0  0
 15 16  1  0  0  0  0
 16 17  1  0  0  0  0
 16 31  1  0  0  0  0
 16 32  1  0  0  0  0
 17 18  1  0  0  0  0
 17 33  1  0  0  0  0
 17 34  1  0  0  0  0
 18 19  1  0  0  0  0
 18 35  1  0  0  0  0
 18 36  1  0  0  0  0
 19 20  1  0  0  0  0
 20 21  1  0  0  0  0
 20 37  1  0  0  0  0
 20 38  1  0  0  0  0
 21 39  1  0  0  0  0
 21 40  1  0  0  0  0
 21 41  1  0  0  0  0
M  END
> <PUBCHEM_COMPOUND_CID>
88073667

> <PUBCHEM_COMPOUND_CANONICALIZED>
1

> <PUBCHEM_CACTVS_COMPLEXITY>
431

> <PUBCHEM_CACTVS_HBOND_ACCEPTOR>
6

> <PUBCHEM_CACTVS_HBOND_DONOR>
0

> <PUBCHEM_CACTVS_ROTATABLE_BOND>
9

> <PUBCHEM_CACTVS_SUBSKEYS>
AAADceBwOAAAAAAAAAAAAAAAAABIkAAAAAAAAAAAAAAAAAAAAAAAGgAAAAAADRSggAICCAAABAAIAICQCAAAAAAAAAAAAAEAAAAAABYAAAACAAAFIAAAAAGK7uzuAAAAAAAAAAAAAAAAAAAAAAAAAAAAAA==

> <PUBCHEM_IUPAC_OPENEYE_NAME>
1,1-bis(4-oxooxetan-2-yl)nonane-3,7-dione

> <PUBCHEM_IUPAC_CAS_NAME>
1,1-bis(4-oxo-2-oxetanyl)nonane-3,7-dione

> <PUBCHEM_IUPAC_NAME_MARKUP>
1,1-bis(4-oxooxetan-2-yl)nonane-3,7-dione

> <PUBCHEM_IUPAC_NAME>
1,1-bis(4-oxooxetan-2-yl)nonane-3,7-dione

> <PUBCHEM_IUPAC_SYSTEMATIC_NAME>
1,1-bis(4-oxidanylideneoxetan-2-yl)nonane-3,7-dione

> <PUBCHEM_IUPAC_TRADITIONAL_NAME>
1,1-bis(4-ketooxetan-2-yl)nonane-3,7-dione

> <PUBCHEM_IUPAC_INCHI>
InChI=1S/C15H20O6/c1-2-9(16)4-3-5-10(17)6-11(12-7-14(18)20-12)13-8-15(19)21-13/h11-13H,2-8H2,1H3

> <PUBCHEM_IUPAC_INCHIKEY>
JSQCQCJAZKIFBI-UHFFFAOYSA-N

> <PUBCHEM_XLOGP3_AA>
-0.1

> <PUBCHEM_EXACT_MASS>
296.12598835

> <PUBCHEM_MOLECULAR_FORMULA>
C15H20O6

> <PUBCHEM_MOLECULAR_WEIGHT>
296.31

> <PUBCHEM_OPENEYE_CAN_SMILES>
CCC(=O)CCCC(=O)CC(C1CC(=O)O1)C2CC(=O)O2

> <PUBCHEM_OPENEYE_ISO_SMILES>
CCC(=O)CCCC(=O)CC(C1CC(=O)O1)C2CC(=O)O2

> <PUBCHEM_CACTVS_TPSA>
86.7

> <PUBCHEM_MONOISOTOPIC_WEIGHT>
296.12598835

> <PUBCHEM_TOTAL_CHARGE>
0

> <PUBCHEM_HEAVY_ATOM_COUNT>
21

> <PUBCHEM_ATOM_DEF_STEREO_COUNT>
0

> <PUBCHEM_ATOM_UDEF_STEREO_COUNT>
2

> <PUBCHEM_BOND_DEF_STEREO_COUNT>
0

> <PUBCHEM_BOND_UDEF_STEREO_COUNT>
0

> <PUBCHEM_ISOTOPIC_ATOM_COUNT>
0

> <PUBCHEM_COMPONENT_COUNT>
1

> <PUBCHEM_CACTVS_TAUTO_COUNT>
-1

> <PUBCHEM_COORDINATE_TYPE>
1
5
255

> <PUBCHEM_BONDANNOTATIONS>
8  7  3
9  7  3

$$$$
