 
  -OEChem-10192103372D

 80 82  0     1  0  0  0  0  0999 V2000
    6.0010   -0.7780    0.0000 O   0  0  0  0  0  0  0  0  0  0  0  0
    9.4651    0.2220    0.0000 O   0  0  0  0  0  0  0  0  0  0  0  0
    4.2690   -0.7780    0.0000 O   0  0  0  0  0  0  0  0  0  0  0  0
   10.3312   -1.2780    0.0000 O   0  0  0  0  0  0  0  0  0  0  0  0
   10.3312    3.7220    0.0000 O   0  0  0  0  0  0  0  0  0  0  0  0
    6.0010   -2.7780    0.0000 O   0  0  0  0  0  0  0  0  0  0  0  0
    7.7331   -0.7780    0.0000 O   0  0  0  0  0  0  0  0  0  0  0  0
    4.2690   -3.7780    0.0000 O   0  0  0  0  0  0  0  0  0  0  0  0
    7.7331   -2.7780    0.0000 O   0  0  0  0  0  0  0  0  0  0  0  0
    2.5369   -2.7780    0.0000 O   0  0  0  0  0  0  0  0  0  0  0  0
    9.4651   -3.7780    0.0000 O   0  0  0  0  0  0  0  0  0  0  0  0
    2.5369    0.2220    0.0000 O   0  0  0  0  0  0  0  0  0  0  0  0
   12.0632   -2.2780    0.0000 O   0  0  0  0  0  0  0  0  0  0  0  0
    7.7331    3.2220    0.0000 C   0  0  0  0  0  0  0  0  0  0  0  0
    7.7331    2.2220    0.0000 C   0  0  1  0  0  0  0  0  0  0  0  0
    6.8671    1.7220    0.0000 C   0  0  0  0  0  0  0  0  0  0  0  0
    8.5991    3.7220    0.0000 C   0  0  0  0  0  0  0  0  0  0  0  0
    8.5991    1.7220    0.0000 C   0  0  0  0  0  0  0  0  0  0  0  0
    7.2331    4.0880    0.0000 C   0  0  0  0  0  0  0  0  0  0  0  0
    6.7331    3.2220    0.0000 C   0  0  0  0  0  0  0  0  0  0  0  0
    6.8671    0.7220    0.0000 C   0  0  0  0  0  0  0  0  0  0  0  0
    9.4651    3.2220    0.0000 C   0  0  0  0  0  0  0  0  0  0  0  0
    9.4651    2.2220    0.0000 C   0  0  0  0  0  0  0  0  0  0  0  0
    8.5991    0.7220    0.0000 C   0  0  0  0  0  0  0  0  0  0  0  0
    6.0010    0.2220    0.0000 C   0  0  3  0  0  0  0  0  0  0  0  0
    5.1350   -1.2780    0.0000 C   0  0  2  0  0  0  0  0  0  0  0  0
    9.4651   -0.7780    0.0000 C   0  0  2  0  0  0  0  0  0  0  0  0
    5.1350   -2.2780    0.0000 C   0  0  1  0  0  0  0  0  0  0  0  0
    8.5991   -1.2780    0.0000 C   0  0  1  0  0  0  0  0  0  0  0  0
    4.2690   -2.7780    0.0000 C   0  0  2  0  0  0  0  0  0  0  0  0
    8.5991   -2.2780    0.0000 C   0  0  2  0  0  0  0  0  0  0  0  0
    3.4030   -2.2780    0.0000 C   0  0  1  0  0  0  0  0  0  0  0  0
    3.4030   -1.2780    0.0000 C   0  0  1  0  0  0  0  0  0  0  0  0
    9.4651   -2.7780    0.0000 C   0  0  1  0  0  0  0  0  0  0  0  0
   10.3312   -2.2780    0.0000 C   0  0  1  0  0  0  0  0  0  0  0  0
    5.1350    0.7220    0.0000 C   0  0  0  0  0  0  0  0  0  0  0  0
    2.5369   -0.7780    0.0000 C   0  0  0  0  0  0  0  0  0  0  0  0
   11.1972   -2.7780    0.0000 C   0  0  0  0  0  0  0  0  0  0  0  0
    7.1962    2.5320    0.0000 H   0  0  0  0  0  0  0  0  0  0  0  0
    6.6550    2.3046    0.0000 H   0  0  0  0  0  0  0  0  0  0  0  0
    6.2565    1.6143    0.0000 H   0  0  0  0  0  0  0  0  0  0  0  0
    8.9976    4.1969    0.0000 H   0  0  0  0  0  0  0  0  0  0  0  0
    8.2006    4.1969    0.0000 H   0  0  0  0  0  0  0  0  0  0  0  0
    7.7700    4.3980    0.0000 H   0  0  0  0  0  0  0  0  0  0  0  0
    6.9231    4.6250    0.0000 H   0  0  0  0  0  0  0  0  0  0  0  0
    6.6962    3.7780    0.0000 H   0  0  0  0  0  0  0  0  0  0  0  0
    6.7331    3.8420    0.0000 H   0  0  0  0  0  0  0  0  0  0  0  0
    6.1131    3.2220    0.0000 H   0  0  0  0  0  0  0  0  0  0  0  0
    6.7331    2.6020    0.0000 H   0  0  0  0  0  0  0  0  0  0  0  0
    7.0791    0.1394    0.0000 H   0  0  0  0  0  0  0  0  0  0  0  0
    7.4776    0.8296    0.0000 H   0  0  0  0  0  0  0  0  0  0  0  0
   10.0021    1.9120    0.0000 H   0  0  0  0  0  0  0  0  0  0  0  0
    7.9885    0.8296    0.0000 H   0  0  0  0  0  0  0  0  0  0  0  0
    8.3871    0.1394    0.0000 H   0  0  0  0  0  0  0  0  0  0  0  0
    6.5380   -0.0880    0.0000 H   0  0  0  0  0  0  0  0  0  0  0  0
    5.6720   -1.5880    0.0000 H   0  0  0  0  0  0  0  0  0  0  0  0
    8.9282   -0.4680    0.0000 H   0  0  0  0  0  0  0  0  0  0  0  0
    5.1350   -2.8980    0.0000 H   0  0  0  0  0  0  0  0  0  0  0  0
    8.0622   -1.5880    0.0000 H   0  0  0  0  0  0  0  0  0  0  0  0
    3.7320   -3.0880    0.0000 H   0  0  0  0  0  0  0  0  0  0  0  0
    8.5991   -2.8980    0.0000 H   0  0  0  0  0  0  0  0  0  0  0  0
    3.4030   -2.8980    0.0000 H   0  0  0  0  0  0  0  0  0  0  0  0
    3.4030   -0.6580    0.0000 H   0  0  0  0  0  0  0  0  0  0  0  0
   10.0021   -3.0880    0.0000 H   0  0  0  0  0  0  0  0  0  0  0  0
   10.8681   -1.9680    0.0000 H   0  0  0  0  0  0  0  0  0  0  0  0
    5.4450    1.2589    0.0000 H   0  0  0  0  0  0  0  0  0  0  0  0
    4.5981    1.0320    0.0000 H   0  0  0  0  0  0  0  0  0  0  0  0
    4.8250    0.1851    0.0000 H   0  0  0  0  0  0  0  0  0  0  0  0
    1.9264   -0.6704    0.0000 H   0  0  0  0  0  0  0  0  0  0  0  0
    2.3249   -1.3606    0.0000 H   0  0  0  0  0  0  0  0  0  0  0  0
   10.7987   -3.2530    0.0000 H   0  0  0  0  0  0  0  0  0  0  0  0
   11.5957   -3.2530    0.0000 H   0  0  0  0  0  0  0  0  0  0  0  0
    6.5380   -2.4680    0.0000 H   0  0  0  0  0  0  0  0  0  0  0  0
    7.1962   -1.0880    0.0000 H   0  0  0  0  0  0  0  0  0  0  0  0
    3.7320   -4.0880    0.0000 H   0  0  0  0  0  0  0  0  0  0  0  0
    7.7331   -3.3980    0.0000 H   0  0  0  0  0  0  0  0  0  0  0  0
    2.0000   -2.4680    0.0000 H   0  0  0  0  0  0  0  0  0  0  0  0
   10.0021   -4.0880    0.0000 H   0  0  0  0  0  0  0  0  0  0  0  0
    2.0000    0.5320    0.0000 H   0  0  0  0  0  0  0  0  0  0  0  0
   12.6002   -2.5880    0.0000 H   0  0  0  0  0  0  0  0  0  0  0  0
  1 25  1  0  0  0  0
 26  1  1  1  0  0  0
  2 24  1  0  0  0  0
 27  2  1  6  0  0  0
  3 26  1  0  0  0  0
  3 33  1  0  0  0  0
  4 27  1  0  0  0  0
  4 35  1  0  0  0  0
  5 22  2  0  0  0  0
 28  6  1  6  0  0  0
  6 73  1  0  0  0  0
 29  7  1  1  0  0  0
  7 74  1  0  0  0  0
 30  8  1  1  0  0  0
  8 75  1  0  0  0  0
 31  9  1  6  0  0  0
  9 76  1  0  0  0  0
 32 10  1  6  0  0  0
 10 77  1  0  0  0  0
 34 11  1  1  0  0  0
 11 78  1  0  0  0  0
 12 37  1  0  0  0  0
 12 79  1  0  0  0  0
 13 38  1  0  0  0  0
 13 80  1  0  0  0  0
 14 15  1  0  0  0  0
 14 17  1  0  0  0  0
 14 19  1  0  0  0  0
 14 20  1  0  0  0  0
 15 16  1  6  0  0  0
 15 18  1  0  0  0  0
 15 39  1  0  0  0  0
 16 21  1  0  0  0  0
 16 40  1  0  0  0  0
 16 41  1  0  0  0  0
 17 22  1  0  0  0  0
 17 42  1  0  0  0  0
 17 43  1  0  0  0  0
 18 23  2  0  0  0  0
 18 24  1  0  0  0  0
 19 44  1  0  0  0  0
 19 45  1  0  0  0  0
 19 46  1  0  0  0  0
 20 47  1  0  0  0  0
 20 48  1  0  0  0  0
 20 49  1  0  0  0  0
 21 25  1  0  0  0  0
 21 50  1  0  0  0  0
 21 51  1  0  0  0  0
 22 23  1  0  0  0  0
 23 52  1  0  0  0  0
 24 53  1  0  0  0  0
 24 54  1  0  0  0  0
 25 36  1  0  0  0  0
 25 55  1  0  0  0  0
 26 28  1  0  0  0  0
 26 56  1  0  0  0  0
 27 29  1  0  0  0  0
 27 57  1  0  0  0  0
 28 30  1  0  0  0  0
 28 58  1  0  0  0  0
 29 31  1  0  0  0  0
 29 59  1  0  0  0  0
 30 32  1  0  0  0  0
 30 60  1  0  0  0  0
 31 34  1  0  0  0  0
 31 61  1  0  0  0  0
 32 33  1  0  0  0  0
 32 62  1  0  0  0  0
 33 37  1  1  0  0  0
 33 63  1  0  0  0  0
 34 35  1  0  0  0  0
 34 64  1  0  0  0  0
 35 38  1  6  0  0  0
 35 65  1  0  0  0  0
 36 66  1  0  0  0  0
 36 67  1  0  0  0  0
 36 68  1  0  0  0  0
 37 69  1  0  0  0  0
 37 70  1  0  0  0  0
 38 71  1  0  0  0  0
 38 72  1  0  0  0  0
M  END
> <PUBCHEM_COMPOUND_CID>
101862453

> <PUBCHEM_COMPOUND_CANONICALIZED>
1

> <PUBCHEM_CACTVS_COMPLEXITY>
819

> <PUBCHEM_CACTVS_HBOND_ACCEPTOR>
13

> <PUBCHEM_CACTVS_HBOND_DONOR>
8

> <PUBCHEM_CACTVS_ROTATABLE_BOND>
10

> <PUBCHEM_CACTVS_SUBSKEYS>
AAADcfB4PAAAAAAAAAAAAAAAAAAAAAAAAAAkSIAAAAAAAAAAAAAAGgAACAAADxSwgAMCCAAABgCIAqBSAAAAAAAgAAAACAEAAEgRFBIAIQAiUAAFgAAPIQPI6PyPgAAAAAAAAAAAAAAAAAAAAAAAAAAAAA==

> <PUBCHEM_IUPAC_OPENEYE_NAME>
(4R)-5,5-dimethyl-4-[3-[(2R,3R,4S,5S,6R)-3,4,5-trihydroxy-6-(hydroxymethyl)tetrahydropyran-2-yl]oxybutyl]-3-[[(2R,3R,4S,5S,6R)-3,4,5-trihydroxy-6-(hydroxymethyl)tetrahydropyran-2-yl]oxymethyl]cyclohex-2-en-1-one

> <PUBCHEM_IUPAC_CAS_NAME>
(4R)-5,5-dimethyl-4-[3-[[(2R,3R,4S,5S,6R)-3,4,5-trihydroxy-6-(hydroxymethyl)-2-oxanyl]oxy]butyl]-3-[[(2R,3R,4S,5S,6R)-3,4,5-trihydroxy-6-(hydroxymethyl)-2-oxanyl]oxymethyl]-1-cyclohex-2-enone

> <PUBCHEM_IUPAC_NAME_MARKUP>
(4<I>R</I>)-5,5-dimethyl-4-[3-[(2<I>R</I>,3<I>R</I>,4<I>S</I>,5<I>S</I>,6<I>R</I>)-3,4,5-trihydroxy-6-(hydroxymethyl)oxan-2-yl]oxybutyl]-3-[[(2<I>R</I>,3<I>R</I>,4<I>S</I>,5<I>S</I>,6<I>R</I>)-3,4,5-trihydroxy-6-(hydroxymethyl)oxan-2-yl]oxymethyl]cyclohex-2-en-1-one

> <PUBCHEM_IUPAC_NAME>
(4R)-5,5-dimethyl-4-[3-[(2R,3R,4S,5S,6R)-3,4,5-trihydroxy-6-(hydroxymethyl)oxan-2-yl]oxybutyl]-3-[[(2R,3R,4S,5S,6R)-3,4,5-trihydroxy-6-(hydroxymethyl)oxan-2-yl]oxymethyl]cyclohex-2-en-1-one

> <PUBCHEM_IUPAC_SYSTEMATIC_NAME>
(4R)-4-[3-[(2R,3R,4S,5S,6R)-6-(hydroxymethyl)-3,4,5-tris(oxidanyl)oxan-2-yl]oxybutyl]-3-[[(2R,3R,4S,5S,6R)-6-(hydroxymethyl)-3,4,5-tris(oxidanyl)oxan-2-yl]oxymethyl]-5,5-dimethyl-cyclohex-2-en-1-one

> <PUBCHEM_IUPAC_TRADITIONAL_NAME>
(4R)-5,5-dimethyl-4-[3-[(2R,3R,4S,5S,6R)-3,4,5-trihydroxy-6-methylol-tetrahydropyran-2-yl]oxybutyl]-3-[[(2R,3R,4S,5S,6R)-3,4,5-trihydroxy-6-methylol-tetrahydropyran-2-yl]oxymethyl]cyclohex-2-en-1-one

> <PUBCHEM_IUPAC_INCHI>
InChI=1S/C25H42O13/c1-11(36-24-22(34)20(32)18(30)16(9-27)38-24)4-5-14-12(6-13(28)7-25(14,2)3)10-35-23-21(33)19(31)17(29)15(8-26)37-23/h6,11,14-24,26-27,29-34H,4-5,7-10H2,1-3H3/t11?,14-,15+,16+,17+,18+,19-,20-,21+,22+,23+,24+/m0/s1

> <PUBCHEM_IUPAC_INCHIKEY>
KVLCNNKJJIMZBJ-ANCGZJNXSA-N

> <PUBCHEM_XLOGP3_AA>
-2.5

> <PUBCHEM_EXACT_MASS>
550.26254139

> <PUBCHEM_MOLECULAR_FORMULA>
C25H42O13

> <PUBCHEM_MOLECULAR_WEIGHT>
550.6

> <PUBCHEM_OPENEYE_CAN_SMILES>
CC(CCC1C(=CC(=O)CC1(C)C)COC2C(C(C(C(O2)CO)O)O)O)OC3C(C(C(C(O3)CO)O)O)O

> <PUBCHEM_OPENEYE_ISO_SMILES>
CC(CC[C@H]1C(=CC(=O)CC1(C)C)CO[C@H]2[C@@H]([C@H]([C@@H]([C@H](O2)CO)O)O)O)O[C@H]3[C@@H]([C@H]([C@@H]([C@H](O3)CO)O)O)O

> <PUBCHEM_CACTVS_TPSA>
216

> <PUBCHEM_MONOISOTOPIC_WEIGHT>
550.26254139

> <PUBCHEM_TOTAL_CHARGE>
0

> <PUBCHEM_HEAVY_ATOM_COUNT>
38

> <PUBCHEM_ATOM_DEF_STEREO_COUNT>
11

> <PUBCHEM_ATOM_UDEF_STEREO_COUNT>
1

> <PUBCHEM_BOND_DEF_STEREO_COUNT>
0

> <PUBCHEM_BOND_UDEF_STEREO_COUNT>
0

> <PUBCHEM_ISOTOPIC_ATOM_COUNT>
0

> <PUBCHEM_COMPONENT_COUNT>
1

> <PUBCHEM_CACTVS_TAUTO_COUNT>
-1

> <PUBCHEM_COORDINATE_TYPE>
1
5
255

> <PUBCHEM_BONDANNOTATIONS>
26  1  5
32  10  6
34  11  5
15  16  6
27  2  6
25  36  3
33  37  5
35  38  6
28  6  6
29  7  5
30  8  5
31  9  6

$$$$
