 
  -OEChem-10192103552D

 98102  0     1  0  0  0  0  0999 V2000
    7.8459   -5.0776    0.0000 O   0  0  0  0  0  0  0  0  0  0  0  0
    4.8100    5.2526    0.0000 O   0  0  0  0  0  0  0  0  0  0  0  0
    6.1138   -7.0776    0.0000 O   0  0  0  0  0  0  0  0  0  0  0  0
    7.8459   -8.0776    0.0000 O   0  0  0  0  0  0  0  0  0  0  0  0
    2.3100    6.1186    0.0000 O   0  0  0  0  0  0  0  0  0  0  0  0
    3.3100    7.8506    0.0000 O   0  0  0  0  0  0  0  0  0  0  0  0
    9.5780   -5.0776    0.0000 O   0  0  0  0  0  0  0  0  0  0  0  0
    6.3100    6.1186    0.0000 O   0  0  0  0  0  0  0  0  0  0  0  0
    9.5780   -7.0776    0.0000 O   0  0  0  0  0  0  0  0  0  0  0  0
    5.3100    7.8506    0.0000 O   0  0  0  0  0  0  0  0  0  0  0  0
    5.2478   -5.5776    0.0000 O   0  0  0  0  0  0  0  0  0  0  0  0
    2.3100    4.3865    0.0000 O   0  0  0  0  0  0  0  0  0  0  0  0
   10.4440   -0.5776    0.0000 O   0  0  0  0  0  0  0  0  0  0  0  0
   11.8100    0.0564    0.0000 O   0  0  0  0  0  0  0  0  0  0  0  0
    9.3100    2.6545    0.0000 O   0  0  0  0  0  0  0  0  0  0  0  0
    9.4592    0.2488    0.0000 O   0  0  0  0  0  0  0  0  0  0  0  0
    8.8703    1.4464    0.0000 O   0  0  0  0  0  0  0  0  0  0  0  0
    6.9799   -6.5776    0.0000 C   0  0  1  0  0  0  0  0  0  0  0  0
    7.8459   -7.0776    0.0000 C   0  0  1  0  0  0  0  0  0  0  0  0
    3.3100    6.1186    0.0000 C   0  0  1  0  0  0  0  0  0  0  0  0
    3.8100    6.9846    0.0000 C   0  0  1  0  0  0  0  0  0  0  0  0
    6.9799   -5.5776    0.0000 C   0  0  1  0  0  0  0  0  0  0  0  0
    8.7119   -6.5776    0.0000 C   0  0  2  0  0  0  0  0  0  0  0  0
    3.8100    5.2526    0.0000 C   0  0  1  0  0  0  0  0  0  0  0  0
    4.8100    6.9846    0.0000 C   0  0  2  0  0  0  0  0  0  0  0  0
    8.7119   -5.5776    0.0000 C   0  0  1  0  0  0  0  0  0  0  0  0
    5.3100    6.1186    0.0000 C   0  0  1  0  0  0  0  0  0  0  0  0
    6.1138   -5.0776    0.0000 C   0  0  0  0  0  0  0  0  0  0  0  0
    3.3100    4.3865    0.0000 C   0  0  0  0  0  0  0  0  0  0  0  0
    9.5780   -4.0776    0.0000 C   0  0  0  0  0  0  0  0  0  0  0  0
    6.8100    5.2526    0.0000 C   0  0  0  0  0  0  0  0  0  0  0  0
   10.4440   -3.5776    0.0000 C   0  0  0  0  0  0  0  0  0  0  0  0
    8.7119   -3.5776    0.0000 C   0  0  0  0  0  0  0  0  0  0  0  0
    7.8100    5.2526    0.0000 C   0  0  0  0  0  0  0  0  0  0  0  0
    6.3100    4.3865    0.0000 C   0  0  0  0  0  0  0  0  0  0  0  0
   11.3100    0.9224    0.0000 C   0  0  2  0  0  0  0  0  0  0  0  0
    9.5780   -2.0776    0.0000 C   0  0  0  0  0  0  0  0  0  0  0  0
   10.4440   -2.5776    0.0000 C   0  0  0  0  0  0  0  0  0  0  0  0
    8.7119   -2.5776    0.0000 C   0  0  0  0  0  0  0  0  0  0  0  0
   12.1760    1.4224    0.0000 C   0  0  0  0  0  0  0  0  0  0  0  0
    7.8100    3.5205    0.0000 C   0  0  0  0  0  0  0  0  0  0  0  0
    8.3100    4.3865    0.0000 C   0  0  0  0  0  0  0  0  0  0  0  0
    6.8100    3.5205    0.0000 C   0  0  0  0  0  0  0  0  0  0  0  0
   10.8100    1.7885    0.0000 C   0  0  0  0  0  0  0  0  0  0  0  0
    9.5780   -1.0776    0.0000 C   0  0  0  0  0  0  0  0  0  0  0  0
   10.4440    0.4224    0.0000 C   0  0  0  0  0  0  0  0  0  0  0  0
    8.3100    2.6545    0.0000 C   0  0  0  0  0  0  0  0  0  0  0  0
   12.1760    2.4224    0.0000 C   0  0  0  0  0  0  0  0  0  0  0  0
    9.8100    1.7885    0.0000 C   0  0  0  0  0  0  0  0  0  0  0  0
   11.3100    2.9224    0.0000 C   0  0  0  0  0  0  0  0  0  0  0  0
   13.0421    2.9224    0.0000 C   0  0  0  0  0  0  0  0  0  0  0  0
   11.3100    3.9224    0.0000 C   0  0  0  0  0  0  0  0  0  0  0  0
   13.0421    3.9224    0.0000 C   0  0  0  0  0  0  0  0  0  0  0  0
   12.1760    4.4224    0.0000 C   0  0  0  0  0  0  0  0  0  0  0  0
    6.9799   -7.1976    0.0000 H   0  0  0  0  0  0  0  0  0  0  0  0
    7.3090   -7.3876    0.0000 H   0  0  0  0  0  0  0  0  0  0  0  0
    3.0000    6.6555    0.0000 H   0  0  0  0  0  0  0  0  0  0  0  0
    4.1200    7.5215    0.0000 H   0  0  0  0  0  0  0  0  0  0  0  0
    6.9799   -4.9576    0.0000 H   0  0  0  0  0  0  0  0  0  0  0  0
    8.7119   -7.1976    0.0000 H   0  0  0  0  0  0  0  0  0  0  0  0
    4.1200    4.7156    0.0000 H   0  0  0  0  0  0  0  0  0  0  0  0
    4.5000    7.5215    0.0000 H   0  0  0  0  0  0  0  0  0  0  0  0
    8.7119   -4.9576    0.0000 H   0  0  0  0  0  0  0  0  0  0  0  0
    5.6200    6.6555    0.0000 H   0  0  0  0  0  0  0  0  0  0  0  0
    6.5124   -4.6026    0.0000 H   0  0  0  0  0  0  0  0  0  0  0  0
    5.7153   -4.6026    0.0000 H   0  0  0  0  0  0  0  0  0  0  0  0
    3.2023    3.7760    0.0000 H   0  0  0  0  0  0  0  0  0  0  0  0
    3.8926    4.1745    0.0000 H   0  0  0  0  0  0  0  0  0  0  0  0
    6.1138   -7.6976    0.0000 H   0  0  0  0  0  0  0  0  0  0  0  0
    8.3828   -8.3876    0.0000 H   0  0  0  0  0  0  0  0  0  0  0  0
    2.0000    6.6555    0.0000 H   0  0  0  0  0  0  0  0  0  0  0  0
    2.6900    7.8506    0.0000 H   0  0  0  0  0  0  0  0  0  0  0  0
   10.1149   -6.7676    0.0000 H   0  0  0  0  0  0  0  0  0  0  0  0
    5.0000    8.3876    0.0000 H   0  0  0  0  0  0  0  0  0  0  0  0
    4.7109   -5.2676    0.0000 H   0  0  0  0  0  0  0  0  0  0  0  0
    2.0000    3.8496    0.0000 H   0  0  0  0  0  0  0  0  0  0  0  0
   10.9809   -3.8876    0.0000 H   0  0  0  0  0  0  0  0  0  0  0  0
    8.1750   -3.8876    0.0000 H   0  0  0  0  0  0  0  0  0  0  0  0
    8.1200    5.7895    0.0000 H   0  0  0  0  0  0  0  0  0  0  0  0
    5.6900    4.3865    0.0000 H   0  0  0  0  0  0  0  0  0  0  0  0
   12.3881    0.8398    0.0000 H   0  0  0  0  0  0  0  0  0  0  0  0
   12.7866    1.5301    0.0000 H   0  0  0  0  0  0  0  0  0  0  0  0
   10.9809   -2.2676    0.0000 H   0  0  0  0  0  0  0  0  0  0  0  0
    8.1750   -2.2676    0.0000 H   0  0  0  0  0  0  0  0  0  0  0  0
   11.3926    2.0005    0.0000 H   0  0  0  0  0  0  0  0  0  0  0  0
   10.7023    2.3990    0.0000 H   0  0  0  0  0  0  0  0  0  0  0  0
    8.9300    4.3865    0.0000 H   0  0  0  0  0  0  0  0  0  0  0  0
    6.5000    2.9836    0.0000 H   0  0  0  0  0  0  0  0  0  0  0  0
    9.3659   -0.4950    0.0000 H   0  0  0  0  0  0  0  0  0  0  0  0
    8.9674   -1.1852    0.0000 H   0  0  0  0  0  0  0  0  0  0  0  0
    7.7274    2.4424    0.0000 H   0  0  0  0  0  0  0  0  0  0  0  0
    8.4177    2.0439    0.0000 H   0  0  0  0  0  0  0  0  0  0  0  0
   12.4300    0.0564    0.0000 H   0  0  0  0  0  0  0  0  0  0  0  0
   10.7731    2.6124    0.0000 H   0  0  0  0  0  0  0  0  0  0  0  0
   13.5790    2.6124    0.0000 H   0  0  0  0  0  0  0  0  0  0  0  0
   10.7731    4.2324    0.0000 H   0  0  0  0  0  0  0  0  0  0  0  0
   13.5790    4.2324    0.0000 H   0  0  0  0  0  0  0  0  0  0  0  0
   12.1760    5.0424    0.0000 H   0  0  0  0  0  0  0  0  0  0  0  0
  1 22  1  0  0  0  0
  1 26  1  0  0  0  0
  2 24  1  0  0  0  0
  2 27  1  0  0  0  0
 18  3  1  6  0  0  0
  3 69  1  0  0  0  0
 19  4  1  1  0  0  0
  4 70  1  0  0  0  0
 20  5  1  1  0  0  0
  5 71  1  0  0  0  0
 21  6  1  6  0  0  0
  6 72  1  0  0  0  0
 26  7  1  1  0  0  0
  7 30  1  0  0  0  0
 27  8  1  6  0  0  0
  8 31  1  0  0  0  0
 23  9  1  6  0  0  0
  9 73  1  0  0  0  0
 25 10  1  1  0  0  0
 10 74  1  0  0  0  0
 11 28  1  0  0  0  0
 11 75  1  0  0  0  0
 12 29  1  0  0  0  0
 12 76  1  0  0  0  0
 13 45  1  0  0  0  0
 13 46  1  0  0  0  0
 36 14  1  1  0  0  0
 14 93  1  0  0  0  0
 15 47  1  0  0  0  0
 15 49  1  0  0  0  0
 16 46  2  0  0  0  0
 17 49  2  0  0  0  0
 18 19  1  0  0  0  0
 18 22  1  0  0  0  0
 18 55  1  0  0  0  0
 19 23  1  0  0  0  0
 19 56  1  0  0  0  0
 20 21  1  0  0  0  0
 20 24  1  0  0  0  0
 20 57  1  0  0  0  0
 21 25  1  0  0  0  0
 21 58  1  0  0  0  0
 22 28  1  1  0  0  0
 22 59  1  0  0  0  0
 23 26  1  0  0  0  0
 23 60  1  0  0  0  0
 24 29  1  6  0  0  0
 24 61  1  0  0  0  0
 25 27  1  0  0  0  0
 25 62  1  0  0  0  0
 26 63  1  0  0  0  0
 27 64  1  0  0  0  0
 28 65  1  0  0  0  0
 28 66  1  0  0  0  0
 29 67  1  0  0  0  0
 29 68  1  0  0  0  0
 30 32  2  0  0  0  0
 30 33  1  0  0  0  0
 31 34  2  0  0  0  0
 31 35  1  0  0  0  0
 32 38  1  0  0  0  0
 32 77  1  0  0  0  0
 33 39  2  0  0  0  0
 33 78  1  0  0  0  0
 34 42  1  0  0  0  0
 34 79  1  0  0  0  0
 35 43  2  0  0  0  0
 35 80  1  0  0  0  0
 36 40  1  0  0  0  0
 36 44  1  0  0  0  0
 36 46  1  0  0  0  0
 37 38  2  0  0  0  0
 37 39  1  0  0  0  0
 37 45  1  0  0  0  0
 38 83  1  0  0  0  0
 39 84  1  0  0  0  0
 40 48  1  0  0  0  0
 40 81  1  0  0  0  0
 40 82  1  0  0  0  0
 41 42  2  0  0  0  0
 41 43  1  0  0  0  0
 41 47  1  0  0  0  0
 42 87  1  0  0  0  0
 43 88  1  0  0  0  0
 44 49  1  0  0  0  0
 44 85  1  0  0  0  0
 44 86  1  0  0  0  0
 45 89  1  0  0  0  0
 45 90  1  0  0  0  0
 47 91  1  0  0  0  0
 47 92  1  0  0  0  0
 48 50  2  0  0  0  0
 48 51  1  0  0  0  0
 50 52  1  0  0  0  0
 50 94  1  0  0  0  0
 51 53  2  0  0  0  0
 51 95  1  0  0  0  0
 52 54  2  0  0  0  0
 52 96  1  0  0  0  0
 53 54  1  0  0  0  0
 53 97  1  0  0  0  0
 54 98  1  0  0  0  0
M  END
> <PUBCHEM_COMPOUND_CID>
102203236

> <PUBCHEM_COMPOUND_CANONICALIZED>
1

> <PUBCHEM_CACTVS_COMPLEXITY>
1160

> <PUBCHEM_CACTVS_HBOND_ACCEPTOR>
17

> <PUBCHEM_CACTVS_HBOND_DONOR>
9

> <PUBCHEM_CACTVS_ROTATABLE_BOND>
17

> <PUBCHEM_CACTVS_SUBSKEYS>
AAADcfB8PgAAAAAAAAAAAAAAAAAAAAAAAAA0aMECAAAAAAABUAAAGgAACAAADFSwmAMwDoAABgCIAiDSCAICCAAgIAAIiAFGCIgdNjaEMRqieCCl4BEPqAfL6PyOIAAAAAAAAABAAAAAAAAAAAAAAAAAAA==

> <PUBCHEM_IUPAC_OPENEYE_NAME>
bis[[4-[(2S,3R,4S,5S,6R)-3,4,5-trihydroxy-6-(hydroxymethyl)tetrahydropyran-2-yl]oxyphenyl]methyl] (2R)-2-benzyl-2-hydroxy-butanedioate

> <PUBCHEM_IUPAC_CAS_NAME>
(2R)-2-hydroxy-2-(phenylmethyl)butanedioic acid bis[[4-[[(2S,3R,4S,5S,6R)-3,4,5-trihydroxy-6-(hydroxymethyl)-2-oxanyl]oxy]phenyl]methyl] ester

> <PUBCHEM_IUPAC_NAME_MARKUP>
bis[[4-[(2<I>S</I>,3<I>R</I>,4<I>S</I>,5<I>S</I>,6<I>R</I>)-3,4,5-trihydroxy-6-(hydroxymethyl)oxan-2-yl]oxyphenyl]methyl] (2<I>R</I>)-2-benzyl-2-hydroxybutanedioate

> <PUBCHEM_IUPAC_NAME>
bis[[4-[(2S,3R,4S,5S,6R)-3,4,5-trihydroxy-6-(hydroxymethyl)oxan-2-yl]oxyphenyl]methyl] (2R)-2-benzyl-2-hydroxybutanedioate

> <PUBCHEM_IUPAC_SYSTEMATIC_NAME>
bis[[4-[(2S,3R,4S,5S,6R)-6-(hydroxymethyl)-3,4,5-tris(oxidanyl)oxan-2-yl]oxyphenyl]methyl] (2R)-2-oxidanyl-2-(phenylmethyl)butanedioate

> <PUBCHEM_IUPAC_TRADITIONAL_NAME>
(2R)-2-benzyl-2-hydroxy-succinic acid bis[4-[(2S,3R,4S,5S,6R)-3,4,5-trihydroxy-6-methylol-tetrahydropyran-2-yl]oxybenzyl] ester

> <PUBCHEM_IUPAC_INCHI>
InChI=1S/C37H44O17/c38-16-25-28(41)30(43)32(45)34(53-25)51-23-10-6-21(7-11-23)18-49-27(40)15-37(48,14-20-4-2-1-3-5-20)36(47)50-19-22-8-12-24(13-9-22)52-35-33(46)31(44)29(42)26(17-39)54-35/h1-13,25-26,28-35,38-39,41-46,48H,14-19H2/t25-,26-,28-,29-,30+,31+,32-,33-,34-,35-,37-/m1/s1

> <PUBCHEM_IUPAC_INCHIKEY>
UYRGYYQZOXSPAC-VODBULHWSA-N

> <PUBCHEM_XLOGP3_AA>
-0.2

> <PUBCHEM_EXACT_MASS>
760.25784993

> <PUBCHEM_MOLECULAR_FORMULA>
C37H44O17

> <PUBCHEM_MOLECULAR_WEIGHT>
760.7

> <PUBCHEM_OPENEYE_CAN_SMILES>
C1=CC=C(C=C1)CC(CC(=O)OCC2=CC=C(C=C2)OC3C(C(C(C(O3)CO)O)O)O)(C(=O)OCC4=CC=C(C=C4)OC5C(C(C(C(O5)CO)O)O)O)O

> <PUBCHEM_OPENEYE_ISO_SMILES>
C1=CC=C(C=C1)C[C@@](CC(=O)OCC2=CC=C(C=C2)O[C@H]3[C@@H]([C@H]([C@@H]([C@H](O3)CO)O)O)O)(C(=O)OCC4=CC=C(C=C4)O[C@H]5[C@@H]([C@H]([C@@H]([C@H](O5)CO)O)O)O)O

> <PUBCHEM_CACTVS_TPSA>
272

> <PUBCHEM_MONOISOTOPIC_WEIGHT>
760.25784993

> <PUBCHEM_TOTAL_CHARGE>
0

> <PUBCHEM_HEAVY_ATOM_COUNT>
54

> <PUBCHEM_ATOM_DEF_STEREO_COUNT>
11

> <PUBCHEM_ATOM_UDEF_STEREO_COUNT>
0

> <PUBCHEM_BOND_DEF_STEREO_COUNT>
0

> <PUBCHEM_BOND_UDEF_STEREO_COUNT>
0

> <PUBCHEM_ISOTOPIC_ATOM_COUNT>
0

> <PUBCHEM_COMPONENT_COUNT>
1

> <PUBCHEM_CACTVS_TAUTO_COUNT>
-1

> <PUBCHEM_COORDINATE_TYPE>
1
5
255

> <PUBCHEM_BONDANNOTATIONS>
25  10  5
36  14  5
22  28  5
24  29  6
18  3  6
30  32  8
30  33  8
31  34  8
31  35  8
32  38  8
33  39  8
34  42  8
35  43  8
37  38  8
37  39  8
19  4  5
41  42  8
41  43  8
48  50  8
48  51  8
20  5  5
50  52  8
51  53  8
52  54  8
53  54  8
21  6  6
26  7  5
27  8  6
23  9  6

$$$$
