 
  -OEChem-10192104042D

 69 71  0     1  0  0  0  0  0999 V2000
    7.7331    0.5950    0.0000 O   0  0  0  0  0  0  0  0  0  0  0  0
    6.0010   -0.4050    0.0000 O   0  0  0  0  0  0  0  0  0  0  0  0
    4.2690   -0.4050    0.0000 O   0  0  0  0  0  0  0  0  0  0  0  0
    6.0010    2.5950    0.0000 O   0  0  0  0  0  0  0  0  0  0  0  0
    9.4651    0.5950    0.0000 O   0  0  0  0  0  0  0  0  0  0  0  0
    7.7331    3.5950    0.0000 O   0  0  0  0  0  0  0  0  0  0  0  0
    9.4651    2.5950    0.0000 O   0  0  0  0  0  0  0  0  0  0  0  0
    6.0010   -2.4050    0.0000 O   0  0  0  0  0  0  0  0  0  0  0  0
    4.2690   -3.4050    0.0000 O   0  0  0  0  0  0  0  0  0  0  0  0
    2.5369   -2.4050    0.0000 O   0  0  0  0  0  0  0  0  0  0  0  0
   11.1972   -3.4050    0.0000 O   0  0  0  0  0  0  0  0  0  0  0  0
   12.9292   -0.4050    0.0000 O   0  0  0  0  0  0  0  0  0  0  0  0
   12.9292   -2.4050    0.0000 O   0  0  0  0  0  0  0  0  0  0  0  0
    6.8671    1.0950    0.0000 C   0  0  1  0  0  0  0  0  0  0  0  0
    6.8671    2.0950    0.0000 C   0  0  2  0  0  0  0  0  0  0  0  0
    7.7331    2.5950    0.0000 C   0  0  1  0  0  0  0  0  0  0  0  0
    8.5991    2.0950    0.0000 C   0  0  2  0  0  0  0  0  0  0  0  0
    5.1350   -1.9050    0.0000 C   0  0  1  0  0  0  0  0  0  0  0  0
    5.1350   -0.9050    0.0000 C   0  0  2  0  0  0  0  0  0  0  0  0
    4.2690   -2.4050    0.0000 C   0  0  1  0  0  0  0  0  0  0  0  0
    3.4030   -1.9050    0.0000 C   0  0  2  0  0  0  0  0  0  0  0  0
    8.5991    1.0950    0.0000 C   0  0  1  0  0  0  0  0  0  0  0  0
    6.0010    0.5950    0.0000 C   0  0  0  0  0  0  0  0  0  0  0  0
    3.4030   -0.9050    0.0000 C   0  0  2  0  0  0  0  0  0  0  0  0
    2.5369   -0.4050    0.0000 C   0  0  0  0  0  0  0  0  0  0  0  0
    9.4651   -0.4050    0.0000 C   0  0  0  0  0  0  0  0  0  0  0  0
   10.3312   -0.9050    0.0000 C   0  0  0  0  0  0  0  0  0  0  0  0
   11.1972   -0.4050    0.0000 C   0  0  0  0  0  0  0  0  0  0  0  0
   10.3312   -1.9050    0.0000 C   0  0  0  0  0  0  0  0  0  0  0  0
   11.1972   -2.4050    0.0000 C   0  0  0  0  0  0  0  0  0  0  0  0
   12.0632   -0.9050    0.0000 C   0  0  0  0  0  0  0  0  0  0  0  0
   12.0632   -1.9050    0.0000 C   0  0  0  0  0  0  0  0  0  0  0  0
   10.3312   -3.9050    0.0000 C   0  0  0  0  0  0  0  0  0  0  0  0
   12.9292    0.5950    0.0000 C   0  0  0  0  0  0  0  0  0  0  0  0
   12.9292   -3.4050    0.0000 C   0  0  0  0  0  0  0  0  0  0  0  0
    6.8671    0.4750    0.0000 H   0  0  0  0  0  0  0  0  0  0  0  0
    6.3301    1.7850    0.0000 H   0  0  0  0  0  0  0  0  0  0  0  0
    7.1962    2.9050    0.0000 H   0  0  0  0  0  0  0  0  0  0  0  0
    8.5991    2.7150    0.0000 H   0  0  0  0  0  0  0  0  0  0  0  0
    5.1350   -2.5250    0.0000 H   0  0  0  0  0  0  0  0  0  0  0  0
    5.1350   -0.2850    0.0000 H   0  0  0  0  0  0  0  0  0  0  0  0
    3.7320   -2.7150    0.0000 H   0  0  0  0  0  0  0  0  0  0  0  0
    3.4030   -2.5250    0.0000 H   0  0  0  0  0  0  0  0  0  0  0  0
    8.5991    0.4750    0.0000 H   0  0  0  0  0  0  0  0  0  0  0  0
    5.7890    1.1776    0.0000 H   0  0  0  0  0  0  0  0  0  0  0  0
    5.3905    0.4873    0.0000 H   0  0  0  0  0  0  0  0  0  0  0  0
    3.4030   -0.2850    0.0000 H   0  0  0  0  0  0  0  0  0  0  0  0
    2.8469    0.1319    0.0000 H   0  0  0  0  0  0  0  0  0  0  0  0
    2.0000   -0.0950    0.0000 H   0  0  0  0  0  0  0  0  0  0  0  0
    2.2269   -0.9419    0.0000 H   0  0  0  0  0  0  0  0  0  0  0  0
    6.0010    3.2150    0.0000 H   0  0  0  0  0  0  0  0  0  0  0  0
    8.2700    3.9050    0.0000 H   0  0  0  0  0  0  0  0  0  0  0  0
   10.0021    2.2850    0.0000 H   0  0  0  0  0  0  0  0  0  0  0  0
    6.5380   -2.0950    0.0000 H   0  0  0  0  0  0  0  0  0  0  0  0
    3.7320   -3.7150    0.0000 H   0  0  0  0  0  0  0  0  0  0  0  0
    2.0000   -2.0950    0.0000 H   0  0  0  0  0  0  0  0  0  0  0  0
    8.8546   -0.2973    0.0000 H   0  0  0  0  0  0  0  0  0  0  0  0
    9.2531   -0.9876    0.0000 H   0  0  0  0  0  0  0  0  0  0  0  0
   11.1972    0.2150    0.0000 H   0  0  0  0  0  0  0  0  0  0  0  0
    9.7942   -2.2150    0.0000 H   0  0  0  0  0  0  0  0  0  0  0  0
   10.0212   -3.3681    0.0000 H   0  0  0  0  0  0  0  0  0  0  0  0
    9.7942   -4.2150    0.0000 H   0  0  0  0  0  0  0  0  0  0  0  0
   10.6412   -4.4419    0.0000 H   0  0  0  0  0  0  0  0  0  0  0  0
   13.5492    0.5950    0.0000 H   0  0  0  0  0  0  0  0  0  0  0  0
   12.9292    1.2150    0.0000 H   0  0  0  0  0  0  0  0  0  0  0  0
   12.3092    0.5950    0.0000 H   0  0  0  0  0  0  0  0  0  0  0  0
   12.3092   -3.4050    0.0000 H   0  0  0  0  0  0  0  0  0  0  0  0
   12.9292   -4.0250    0.0000 H   0  0  0  0  0  0  0  0  0  0  0  0
   13.5492   -3.4050    0.0000 H   0  0  0  0  0  0  0  0  0  0  0  0
  1 14  1  0  0  0  0
  1 22  1  0  0  0  0
 19  2  1  1  0  0  0
  2 23  1  0  0  0  0
  3 19  1  0  0  0  0
  3 24  1  0  0  0  0
 15  4  1  1  0  0  0
  4 51  1  0  0  0  0
 22  5  1  6  0  0  0
  5 26  1  0  0  0  0
 16  6  1  6  0  0  0
  6 52  1  0  0  0  0
 17  7  1  1  0  0  0
  7 53  1  0  0  0  0
 18  8  1  6  0  0  0
  8 54  1  0  0  0  0
 20  9  1  6  0  0  0
  9 55  1  0  0  0  0
 21 10  1  1  0  0  0
 10 56  1  0  0  0  0
 11 30  1  0  0  0  0
 11 33  1  0  0  0  0
 12 31  1  0  0  0  0
 12 34  1  0  0  0  0
 13 32  1  0  0  0  0
 13 35  1  0  0  0  0
 14 15  1  0  0  0  0
 14 23  1  6  0  0  0
 14 36  1  0  0  0  0
 15 16  1  0  0  0  0
 15 37  1  0  0  0  0
 16 17  1  0  0  0  0
 16 38  1  0  0  0  0
 17 22  1  0  0  0  0
 17 39  1  0  0  0  0
 18 19  1  0  0  0  0
 18 20  1  0  0  0  0
 18 40  1  0  0  0  0
 19 41  1  0  0  0  0
 20 21  1  0  0  0  0
 20 42  1  0  0  0  0
 21 24  1  0  0  0  0
 21 43  1  0  0  0  0
 22 44  1  0  0  0  0
 23 45  1  0  0  0  0
 23 46  1  0  0  0  0
 24 25  1  6  0  0  0
 24 47  1  0  0  0  0
 25 48  1  0  0  0  0
 25 49  1  0  0  0  0
 25 50  1  0  0  0  0
 26 27  1  0  0  0  0
 26 57  1  0  0  0  0
 26 58  1  0  0  0  0
 27 28  2  0  0  0  0
 27 29  1  0  0  0  0
 28 31  1  0  0  0  0
 28 59  1  0  0  0  0
 29 30  2  0  0  0  0
 29 60  1  0  0  0  0
 30 32  1  0  0  0  0
 31 32  2  0  0  0  0
 33 61  1  0  0  0  0
 33 62  1  0  0  0  0
 33 63  1  0  0  0  0
 34 64  1  0  0  0  0
 34 65  1  0  0  0  0
 34 66  1  0  0  0  0
 35 67  1  0  0  0  0
 35 68  1  0  0  0  0
 35 69  1  0  0  0  0
M  END
> <PUBCHEM_COMPOUND_CID>
132526846

> <PUBCHEM_COMPOUND_CANONICALIZED>
1

> <PUBCHEM_CACTVS_COMPLEXITY>
627

> <PUBCHEM_CACTVS_HBOND_ACCEPTOR>
13

> <PUBCHEM_CACTVS_HBOND_DONOR>
6

> <PUBCHEM_CACTVS_ROTATABLE_BOND>
9

> <PUBCHEM_CACTVS_SUBSKEYS>
AAADcfB4PAAAAAAAAAAAAAAAAAAAAAAAAAA0SIAAAAAAAAABAAAAGgAACAAADBSwmAMyDoAABgCAAiBCAAACCAAgIAAAiAAGiIgdNyKEMRqicCIlwBUPqAfA4DwOIAABCAAAQABAAAIQAACAAAAAAAAAAA==

> <PUBCHEM_IUPAC_OPENEYE_NAME>
(2S,3R,4R,5R,6R)-2-methyl-6-[[(2R,3S,4S,5R,6R)-3,4,5-trihydroxy-6-[(3,4,5-trimethoxyphenyl)methoxy]tetrahydropyran-2-yl]methoxy]tetrahydropyran-3,4,5-triol

> <PUBCHEM_IUPAC_CAS_NAME>
(2S,3R,4R,5R,6R)-2-methyl-6-[[(2R,3S,4S,5R,6R)-3,4,5-trihydroxy-6-[(3,4,5-trimethoxyphenyl)methoxy]-2-oxanyl]methoxy]oxane-3,4,5-triol

> <PUBCHEM_IUPAC_NAME_MARKUP>
(2<I>S</I>,3<I>R</I>,4<I>R</I>,5<I>R</I>,6<I>R</I>)-2-methyl-6-[[(2<I>R</I>,3<I>S</I>,4<I>S</I>,5<I>R</I>,6<I>R</I>)-3,4,5-trihydroxy-6-[(3,4,5-trimethoxyphenyl)methoxy]oxan-2-yl]methoxy]oxane-3,4,5-triol

> <PUBCHEM_IUPAC_NAME>
(2S,3R,4R,5R,6R)-2-methyl-6-[[(2R,3S,4S,5R,6R)-3,4,5-trihydroxy-6-[(3,4,5-trimethoxyphenyl)methoxy]oxan-2-yl]methoxy]oxane-3,4,5-triol

> <PUBCHEM_IUPAC_SYSTEMATIC_NAME>
(2S,3R,4R,5R,6R)-2-methyl-6-[[(2R,3S,4S,5R,6R)-3,4,5-tris(oxidanyl)-6-[(3,4,5-trimethoxyphenyl)methoxy]oxan-2-yl]methoxy]oxane-3,4,5-triol

> <PUBCHEM_IUPAC_TRADITIONAL_NAME>
(2S,3R,4R,5R,6R)-2-methyl-6-[[(2R,3S,4S,5R,6R)-3,4,5-trihydroxy-6-(3,4,5-trimethoxybenzyl)oxy-tetrahydropyran-2-yl]methoxy]tetrahydropyran-3,4,5-triol

> <PUBCHEM_IUPAC_INCHI>
InChI=1S/C22H34O13/c1-9-14(23)16(25)18(27)21(34-9)33-8-13-15(24)17(26)19(28)22(35-13)32-7-10-5-11(29-2)20(31-4)12(6-10)30-3/h5-6,9,13-19,21-28H,7-8H2,1-4H3/t9-,13+,14-,15+,16+,17-,18+,19+,21+,22+/m0/s1

> <PUBCHEM_IUPAC_INCHIKEY>
FDMLCDFMRKLZKB-NTHVFTPISA-N

> <PUBCHEM_XLOGP3_AA>
-2.3

> <PUBCHEM_EXACT_MASS>
506.19994113

> <PUBCHEM_MOLECULAR_FORMULA>
C22H34O13

> <PUBCHEM_MOLECULAR_WEIGHT>
506.5

> <PUBCHEM_OPENEYE_CAN_SMILES>
CC1C(C(C(C(O1)OCC2C(C(C(C(O2)OCC3=CC(=C(C(=C3)OC)OC)OC)O)O)O)O)O)O

> <PUBCHEM_OPENEYE_ISO_SMILES>
C[C@H]1[C@@H]([C@H]([C@H]([C@@H](O1)OC[C@@H]2[C@H]([C@@H]([C@H]([C@@H](O2)OCC3=CC(=C(C(=C3)OC)OC)OC)O)O)O)O)O)O

> <PUBCHEM_CACTVS_TPSA>
186

> <PUBCHEM_MONOISOTOPIC_WEIGHT>
506.19994113

> <PUBCHEM_TOTAL_CHARGE>
0

> <PUBCHEM_HEAVY_ATOM_COUNT>
35

> <PUBCHEM_ATOM_DEF_STEREO_COUNT>
10

> <PUBCHEM_ATOM_UDEF_STEREO_COUNT>
0

> <PUBCHEM_BOND_DEF_STEREO_COUNT>
0

> <PUBCHEM_BOND_UDEF_STEREO_COUNT>
0

> <PUBCHEM_ISOTOPIC_ATOM_COUNT>
0

> <PUBCHEM_COMPONENT_COUNT>
1

> <PUBCHEM_CACTVS_TAUTO_COUNT>
-1

> <PUBCHEM_COORDINATE_TYPE>
1
5
255

> <PUBCHEM_BONDANNOTATIONS>
21  10  5
14  23  6
19  2  5
24  25  6
27  28  8
27  29  8
28  31  8
29  30  8
30  32  8
31  32  8
15  4  5
22  5  6
16  6  6
17  7  5
18  8  6
20  9  6

$$$$
