 
  -OEChem-10192104092D

 91 97  0     1  0  0  0  0  0999 V2000
    9.7082   -3.2252    0.0000 O   0  0  0  0  0  0  0  0  0  0  0  0
    9.0532   -0.5436    0.0000 O   0  0  0  0  0  0  0  0  0  0  0  0
    5.9670   -2.7889    0.0000 O   0  0  0  0  0  0  0  0  0  0  0  0
    6.8671   -4.3132    0.0000 O   0  0  0  0  0  0  0  0  0  0  0  0
    8.5136   -4.8293    0.0000 O   0  0  0  0  0  0  0  0  0  0  0  0
    5.1350   -4.3132    0.0000 O   0  0  0  0  0  0  0  0  0  0  0  0
   10.6942   -1.0978    0.0000 O   0  0  0  0  0  0  0  0  0  0  0  0
   10.0132    2.2987    0.0000 O   0  0  0  0  0  0  0  0  0  0  0  0
    6.8671   -6.3132    0.0000 O   0  0  0  0  0  0  0  0  0  0  0  0
   11.3137    3.4427    0.0000 O   0  0  0  0  0  0  0  0  0  0  0  0
    5.1350   -7.3132    0.0000 O   0  0  0  0  0  0  0  0  0  0  0  0
    3.4030   -6.3132    0.0000 O   0  0  0  0  0  0  0  0  0  0  0  0
   10.9732    5.1410    0.0000 O   0  0  0  0  0  0  0  0  0  0  0  0
    2.5369   -4.8132    0.0000 O   0  0  0  0  0  0  0  0  0  0  0  0
    9.3527    3.0495    0.0000 O   0  0  0  0  0  0  0  0  0  0  0  0
    8.0318    4.5512    0.0000 O   0  0  0  0  0  0  0  0  0  0  0  0
    8.6717    6.4460    0.0000 O   0  0  0  0  0  0  0  0  0  0  0  0
   11.6132    7.0358    0.0000 O   0  0  0  0  0  0  0  0  0  0  0  0
    8.7145   -3.1089    0.0000 C   0  0  1  0  0  0  0  0  0  0  0  0
    9.3116   -2.3067    0.0000 C   0  0  2  0  0  0  0  0  0  0  0  0
    7.7671   -2.7889    0.0000 C   0  0  2  0  0  0  0  0  0  0  0  0
    7.7787   -1.7890    0.0000 C   0  0  2  0  0  0  0  0  0  0  0  0
    8.7333   -1.4910    0.0000 C   0  0  2  0  0  0  0  0  0  0  0  0
    8.1174   -3.9111    0.0000 C   0  0  0  0  0  0  0  0  0  0  0  0
    6.8671   -3.3132    0.0000 C   0  0  1  0  0  0  0  0  0  0  0  0
    6.8910   -1.2440    0.0000 C   0  0  0  0  0  0  0  0  0  0  0  0
    5.9790   -1.7474    0.0000 C   0  0  0  0  0  0  0  0  0  0  0  0
   10.0337   -0.3470    0.0000 C   0  0  0  0  0  0  0  0  0  0  0  0
    6.0010   -4.8132    0.0000 C   0  0  2  0  0  0  0  0  0  0  0  0
   10.3537    0.6004    0.0000 C   0  0  0  0  0  0  0  0  0  0  0  0
   11.3342    0.7970    0.0000 C   0  0  2  0  0  0  0  0  0  0  0  0
    6.0010   -5.8132    0.0000 C   0  0  1  0  0  0  0  0  0  0  0  0
   11.6542    1.7445    0.0000 C   0  0  1  0  0  0  0  0  0  0  0  0
   12.1332    0.2055    0.0000 C   0  0  0  0  0  0  0  0  0  0  0  0
    5.1350   -6.3132    0.0000 C   0  0  2  0  0  0  0  0  0  0  0  0
    4.2690   -4.8132    0.0000 C   0  0  1  0  0  0  0  0  0  0  0  0
   10.9937    2.4953    0.0000 C   0  0  1  0  0  0  0  0  0  0  0  0
    4.2690   -5.8132    0.0000 C   0  0  1  0  0  0  0  0  0  0  0  0
   12.6482    1.7304    0.0000 C   0  0  0  0  0  0  0  0  0  0  0  0
   12.9436    0.7812    0.0000 C   0  0  0  0  0  0  0  0  0  0  0  0
    9.6932    1.3513    0.0000 C   0  0  0  0  0  0  0  0  0  0  0  0
    3.4030   -4.3132    0.0000 C   0  0  0  0  0  0  0  0  0  0  0  0
   13.2467    2.5315    0.0000 C   0  0  0  0  0  0  0  0  0  0  0  0
   10.6532    4.1935    0.0000 C   0  0  2  0  0  0  0  0  0  0  0  0
    9.6727    3.9970    0.0000 C   0  0  1  0  0  0  0  0  0  0  0  0
    9.0122    4.7478    0.0000 C   0  0  2  0  0  0  0  0  0  0  0  0
   10.3127    5.8918    0.0000 C   0  0  1  0  0  0  0  0  0  0  0  0
    9.3322    5.6952    0.0000 C   0  0  1  0  0  0  0  0  0  0  0  0
   10.6327    6.8392    0.0000 C   0  0  0  0  0  0  0  0  0  0  0  0
   10.0526   -1.8902    0.0000 H   0  0  0  0  0  0  0  0  0  0  0  0
    7.8527   -3.6346    0.0000 H   0  0  0  0  0  0  0  0  0  0  0  0
    7.8838   -0.9455    0.0000 H   0  0  0  0  0  0  0  0  0  0  0  0
    9.3467   -1.4011    0.0000 H   0  0  0  0  0  0  0  0  0  0  0  0
    7.6919   -3.4601    0.0000 H   0  0  0  0  0  0  0  0  0  0  0  0
    7.5995   -4.2518    0.0000 H   0  0  0  0  0  0  0  0  0  0  0  0
    7.4046   -3.6222    0.0000 H   0  0  0  0  0  0  0  0  0  0  0  0
    6.9053   -0.6242    0.0000 H   0  0  0  0  0  0  0  0  0  0  0  0
    5.4470   -1.4291    0.0000 H   0  0  0  0  0  0  0  0  0  0  0  0
    9.1294   -4.9012    0.0000 H   0  0  0  0  0  0  0  0  0  0  0  0
    6.0010   -4.1932    0.0000 H   0  0  0  0  0  0  0  0  0  0  0  0
   11.1490   -0.0325    0.0000 H   0  0  0  0  0  0  0  0  0  0  0  0
    6.0010   -6.4332    0.0000 H   0  0  0  0  0  0  0  0  0  0  0  0
   12.0099    2.5165    0.0000 H   0  0  0  0  0  0  0  0  0  0  0  0
   11.7139   -0.2512    0.0000 H   0  0  0  0  0  0  0  0  0  0  0  0
   12.5433   -0.2594    0.0000 H   0  0  0  0  0  0  0  0  0  0  0  0
    4.5981   -6.6232    0.0000 H   0  0  0  0  0  0  0  0  0  0  0  0
    4.2690   -4.1932    0.0000 H   0  0  0  0  0  0  0  0  0  0  0  0
   11.6016    2.6172    0.0000 H   0  0  0  0  0  0  0  0  0  0  0  0
    4.2690   -6.4332    0.0000 H   0  0  0  0  0  0  0  0  0  0  0  0
   13.2475    0.2408    0.0000 H   0  0  0  0  0  0  0  0  0  0  0  0
   13.5130    1.0267    0.0000 H   0  0  0  0  0  0  0  0  0  0  0  0
    9.0853    1.2294    0.0000 H   0  0  0  0  0  0  0  0  0  0  0  0
    6.8671   -6.9332    0.0000 H   0  0  0  0  0  0  0  0  0  0  0  0
    3.8015   -3.8382    0.0000 H   0  0  0  0  0  0  0  0  0  0  0  0
    3.0044   -3.8382    0.0000 H   0  0  0  0  0  0  0  0  0  0  0  0
    4.5981   -7.6232    0.0000 H   0  0  0  0  0  0  0  0  0  0  0  0
   13.8624    2.4585    0.0000 H   0  0  0  0  0  0  0  0  0  0  0  0
   13.0021    3.1012    0.0000 H   0  0  0  0  0  0  0  0  0  0  0  0
   10.4548    3.6061    0.0000 H   0  0  0  0  0  0  0  0  0  0  0  0
    3.4030   -6.9332    0.0000 H   0  0  0  0  0  0  0  0  0  0  0  0
    9.0648    3.8751    0.0000 H   0  0  0  0  0  0  0  0  0  0  0  0
    8.6027    5.2133    0.0000 H   0  0  0  0  0  0  0  0  0  0  0  0
   10.9206    6.0137    0.0000 H   0  0  0  0  0  0  0  0  0  0  0  0
    9.5306    6.2826    0.0000 H   0  0  0  0  0  0  0  0  0  0  0  0
    2.0000   -4.5032    0.0000 H   0  0  0  0  0  0  0  0  0  0  0  0
   10.6182    7.4590    0.0000 H   0  0  0  0  0  0  0  0  0  0  0  0
   10.0198    6.9326    0.0000 H   0  0  0  0  0  0  0  0  0  0  0  0
    8.7448    2.9276    0.0000 H   0  0  0  0  0  0  0  0  0  0  0  0
    7.6222    5.0167    0.0000 H   0  0  0  0  0  0  0  0  0  0  0  0
    8.8701    7.0334    0.0000 H   0  0  0  0  0  0  0  0  0  0  0  0
   11.8116    7.6232    0.0000 H   0  0  0  0  0  0  0  0  0  0  0  0
  1 19  1  0  0  0  0
  1 20  1  0  0  0  0
 23  2  1  6  0  0  0
  2 28  1  0  0  0  0
  3 25  1  0  0  0  0
  3 27  1  0  0  0  0
 25  4  1  6  0  0  0
 29  4  1  1  0  0  0
  5 24  1  0  0  0  0
  5 59  1  0  0  0  0
  6 29  1  0  0  0  0
  6 36  1  0  0  0  0
  7 28  2  0  0  0  0
  8 37  1  0  0  0  0
  8 41  1  0  0  0  0
 32  9  1  6  0  0  0
  9 73  1  0  0  0  0
 37 10  1  1  0  0  0
 44 10  1  1  0  0  0
 35 11  1  1  0  0  0
 11 76  1  0  0  0  0
 38 12  1  6  0  0  0
 12 80  1  0  0  0  0
 13 44  1  0  0  0  0
 13 47  1  0  0  0  0
 14 42  1  0  0  0  0
 14 85  1  0  0  0  0
 45 15  1  6  0  0  0
 15 88  1  0  0  0  0
 46 16  1  1  0  0  0
 16 89  1  0  0  0  0
 48 17  1  6  0  0  0
 17 90  1  0  0  0  0
 18 49  1  0  0  0  0
 18 91  1  0  0  0  0
 19 20  1  0  0  0  0
 19 21  1  0  0  0  0
 19 24  1  1  0  0  0
 20 23  1  0  0  0  0
 20 50  1  1  0  0  0
 21 22  1  0  0  0  0
 21 25  1  0  0  0  0
 21 51  1  6  0  0  0
 22 23  1  0  0  0  0
 22 26  1  0  0  0  0
 22 52  1  6  0  0  0
 23 53  1  0  0  0  0
 24 54  1  0  0  0  0
 24 55  1  0  0  0  0
 25 56  1  0  0  0  0
 26 27  2  0  0  0  0
 26 57  1  0  0  0  0
 27 58  1  0  0  0  0
 28 30  1  0  0  0  0
 29 32  1  0  0  0  0
 29 60  1  0  0  0  0
 30 31  1  0  0  0  0
 30 41  2  0  0  0  0
 31 33  1  0  0  0  0
 31 34  1  0  0  0  0
 31 61  1  1  0  0  0
 32 35  1  0  0  0  0
 32 62  1  0  0  0  0
 33 37  1  0  0  0  0
 33 39  1  0  0  0  0
 33 63  1  6  0  0  0
 34 40  1  0  0  0  0
 34 64  1  0  0  0  0
 34 65  1  0  0  0  0
 35 38  1  0  0  0  0
 35 66  1  0  0  0  0
 36 38  1  0  0  0  0
 36 42  1  1  0  0  0
 36 67  1  0  0  0  0
 37 68  1  0  0  0  0
 38 69  1  0  0  0  0
 39 40  1  0  0  0  0
 39 43  2  0  0  0  0
 40 70  1  0  0  0  0
 40 71  1  0  0  0  0
 41 72  1  0  0  0  0
 42 74  1  0  0  0  0
 42 75  1  0  0  0  0
 43 77  1  0  0  0  0
 43 78  1  0  0  0  0
 44 45  1  0  0  0  0
 44 79  1  0  0  0  0
 45 46  1  0  0  0  0
 45 81  1  0  0  0  0
 46 48  1  0  0  0  0
 46 82  1  0  0  0  0
 47 48  1  0  0  0  0
 47 49  1  1  0  0  0
 47 83  1  0  0  0  0
 48 84  1  0  0  0  0
 49 86  1  0  0  0  0
 49 87  1  0  0  0  0
M  END
> <PUBCHEM_COMPOUND_CID>
102078538

> <PUBCHEM_COMPOUND_CANONICALIZED>
1

> <PUBCHEM_CACTVS_COMPLEXITY>
1330

> <PUBCHEM_CACTVS_HBOND_ACCEPTOR>
18

> <PUBCHEM_CACTVS_HBOND_DONOR>
9

> <PUBCHEM_CACTVS_ROTATABLE_BOND>
10

> <PUBCHEM_CACTVS_SUBSKEYS>
AAADcfB4PgAAAAAAAAAAAAAAEgAAAYMAAAAkSJECAAAAAEAAAAAAGgAACAAADVSwgAMACAAABgCIAiDSCAAACAAgIAAIAAEAAEgRFBIAIQAiQAAFwAAHIIHI7LyOgAAAAAAAAAAAAAAAAAAAAYQADCAAAA==

> <PUBCHEM_IUPAC_OPENEYE_NAME>
[(1S,2S,4S,5S,6R,10S)-2-(hydroxymethyl)-10-[(2S,3R,4S,5S,6R)-3,4,5-trihydroxy-6-(hydroxymethyl)tetrahydropyran-2-yl]oxy-3,9-dioxatricyclo[4.4.0.02,4]dec-7-en-5-yl] (1S,4aS,7aR)-7-methylene-1-[(2S,3R,4S,5S,6R)-3,4,5-trihydroxy-6-(hydroxymethyl)tetrahydropyran-2-yl]oxy-4a,5,6,7a-tetrahydro-1H-cyclopenta[c]pyran-4-carboxylate

> <PUBCHEM_IUPAC_CAS_NAME>
(1S,4aS,7aR)-7-methylene-1-[[(2S,3R,4S,5S,6R)-3,4,5-trihydroxy-6-(hydroxymethyl)-2-oxanyl]oxy]-4a,5,6,7a-tetrahydro-1H-cyclopenta[c]pyran-4-carboxylic acid [(1S,2S,4S,5S,6R,10S)-2-(hydroxymethyl)-10-[[(2S,3R,4S,5S,6R)-3,4,5-trihydroxy-6-(hydroxymethyl)-2-oxanyl]oxy]-3,9-dioxatricyclo[4.4.0.02,4]dec-7-en-5-yl] ester

> <PUBCHEM_IUPAC_NAME_MARKUP>
[(1<I>S</I>,2<I>S</I>,4<I>S</I>,5<I>S</I>,6<I>R</I>,10<I>S</I>)-2-(hydroxymethyl)-10-[(2<I>S</I>,3<I>R</I>,4<I>S</I>,5<I>S</I>,6<I>R</I>)-3,4,5-trihydroxy-6-(hydroxymethyl)oxan-2-yl]oxy-3,9-dioxatricyclo[4.4.0.0<SUP>2,4</SUP>]dec-7-en-5-yl] (1<I>S</I>,4<I>a</I><I>S</I>,7<I>a</I><I>R</I>)-7-methylidene-1-[(2<I>S</I>,3<I>R</I>,4<I>S</I>,5<I>S</I>,6<I>R</I>)-3,4,5-trihydroxy-6-(hydroxymethyl)oxan-2-yl]oxy-4<I>a</I>,5,6,7<I>a</I>-tetrahydro-1<I>H</I>-cyclopenta[c]pyran-4-carboxylate

> <PUBCHEM_IUPAC_NAME>
[(1S,2S,4S,5S,6R,10S)-2-(hydroxymethyl)-10-[(2S,3R,4S,5S,6R)-3,4,5-trihydroxy-6-(hydroxymethyl)oxan-2-yl]oxy-3,9-dioxatricyclo[4.4.0.02,4]dec-7-en-5-yl] (1S,4aS,7aR)-7-methylidene-1-[(2S,3R,4S,5S,6R)-3,4,5-trihydroxy-6-(hydroxymethyl)oxan-2-yl]oxy-4a,5,6,7a-tetrahydro-1H-cyclopenta[c]pyran-4-carboxylate

> <PUBCHEM_IUPAC_SYSTEMATIC_NAME>
[(1S,2S,4S,5S,6R,10S)-2-(hydroxymethyl)-10-[(2S,3R,4S,5S,6R)-6-(hydroxymethyl)-3,4,5-tris(oxidanyl)oxan-2-yl]oxy-3,9-dioxatricyclo[4.4.0.02,4]dec-7-en-5-yl] (1S,4aS,7aR)-1-[(2S,3R,4S,5S,6R)-6-(hydroxymethyl)-3,4,5-tris(oxidanyl)oxan-2-yl]oxy-7-methylidene-4a,5,6,7a-tetrahydro-1H-cyclopenta[c]pyran-4-carboxylate

> <PUBCHEM_IUPAC_TRADITIONAL_NAME>
(1S,4aS,7aR)-7-methylene-1-[(2S,3R,4S,5S,6R)-3,4,5-trihydroxy-6-methylol-tetrahydropyran-2-yl]oxy-4a,5,6,7a-tetrahydro-1H-cyclopenta[c]pyran-4-carboxylic acid [(1S,2S,4S,5S,6R,10S)-2-methylol-10-[(2S,3R,4S,5S,6R)-3,4,5-trihydroxy-6-methylol-tetrahydropyran-2-yl]oxy-3,9-dioxatricyclo[4.4.0.02,4]dec-7-en-5-yl] ester

> <PUBCHEM_IUPAC_INCHI>
InChI=1S/C31H42O18/c1-10-2-3-11-13(8-43-27(16(10)11)47-29-22(39)20(37)18(35)14(6-32)44-29)26(41)46-24-12-4-5-42-28(17(12)31(9-34)25(24)49-31)48-30-23(40)21(38)19(36)15(7-33)45-30/h4-5,8,11-12,14-25,27-30,32-40H,1-3,6-7,9H2/t11-,12-,14-,15-,16+,17-,18-,19-,20+,21+,22-,23-,24+,25+,27+,28+,29+,30+,31-/m1/s1

> <PUBCHEM_IUPAC_INCHIKEY>
DHZDTIROSIGKIG-JCHPKHEYSA-N

> <PUBCHEM_XLOGP3_AA>
-3.6

> <PUBCHEM_EXACT_MASS>
702.23711449

> <PUBCHEM_MOLECULAR_FORMULA>
C31H42O18

> <PUBCHEM_MOLECULAR_WEIGHT>
702.7

> <PUBCHEM_OPENEYE_CAN_SMILES>
C=C1CCC2C1C(OC=C2C(=O)OC3C4C=COC(C4C5(C3O5)CO)OC6C(C(C(C(O6)CO)O)O)O)OC7C(C(C(C(O7)CO)O)O)O

> <PUBCHEM_OPENEYE_ISO_SMILES>
C=C1CC[C@H]2[C@H]1[C@@H](OC=C2C(=O)O[C@H]3[C@@H]4C=CO[C@H]([C@@H]4[C@@]5([C@H]3O5)CO)O[C@H]6[C@@H]([C@H]([C@@H]([C@H](O6)CO)O)O)O)O[C@H]7[C@@H]([C@H]([C@@H]([C@H](O7)CO)O)O)O

> <PUBCHEM_CACTVS_TPSA>
276

> <PUBCHEM_MONOISOTOPIC_WEIGHT>
702.23711449

> <PUBCHEM_TOTAL_CHARGE>
0

> <PUBCHEM_HEAVY_ATOM_COUNT>
49

> <PUBCHEM_ATOM_DEF_STEREO_COUNT>
19

> <PUBCHEM_ATOM_UDEF_STEREO_COUNT>
0

> <PUBCHEM_BOND_DEF_STEREO_COUNT>
0

> <PUBCHEM_BOND_UDEF_STEREO_COUNT>
0

> <PUBCHEM_ISOTOPIC_ATOM_COUNT>
0

> <PUBCHEM_COMPONENT_COUNT>
1

> <PUBCHEM_CACTVS_TAUTO_COUNT>
-1

> <PUBCHEM_COORDINATE_TYPE>
1
5
255

> <PUBCHEM_BONDANNOTATIONS>
37  10  5
44  10  5
35  11  5
38  12  6
45  15  6
46  16  5
48  17  6
19  24  5
23  2  6
20  50  5
21  51  6
22  52  6
31  61  5
33  63  6
36  42  5
25  4  6
29  4  5
47  49  5
32  9  6

$$$$
