 
  -OEChem-10192104302D

 81 80  0     1  0  0  0  0  0999 V2000
    9.7942   -2.9400    0.0000 O   0  0  0  0  0  0  0  0  0  0  0  0
   11.5263   -2.9400    0.0000 O   0  0  0  0  0  0  0  0  0  0  0  0
   14.9904   -0.9400    0.0000 O   0  0  0  0  0  0  0  0  0  0  0  0
   14.1244   -2.4400    0.0000 O   0  0  0  0  0  0  0  0  0  0  0  0
    2.8660   -0.9400    0.0000 O   0  0  0  0  0  0  0  0  0  0  0  0
    4.5981    2.0600    0.0000 O   0  0  0  0  0  0  0  0  0  0  0  0
   13.2583    3.0600    0.0000 O   0  0  0  0  0  0  0  0  0  0  0  0
    3.7320   -2.4400    0.0000 O   0  0  0  0  0  0  0  0  0  0  0  0
    6.3301    2.0600    0.0000 O   0  0  0  0  0  0  0  0  0  0  0  0
   14.1244    1.5600    0.0000 O   0  0  0  0  0  0  0  0  0  0  0  0
   11.5263   -0.9400    0.0000 N   0  0  3  0  0  0  0  0  0  0  0  0
    6.3301   -0.9400    0.0000 N   0  0  0  0  0  0  0  0  0  0  0  0
    9.7942   -0.9400    0.0000 C   0  0  3  0  0  0  0  0  0  0  0  0
    8.9282   -1.4400    0.0000 C   0  0  0  0  0  0  0  0  0  0  0  0
    8.0622   -0.9400    0.0000 C   0  0  3  0  0  0  0  0  0  0  0  0
   10.6603   -1.4400    0.0000 C   0  0  3  0  0  0  0  0  0  0  0  0
    7.1962   -1.4400    0.0000 C   0  0  0  0  0  0  0  0  0  0  0  0
    9.7942    0.0600    0.0000 C   0  0  0  0  0  0  0  0  0  0  0  0
    8.0622    0.0600    0.0000 C   0  0  0  0  0  0  0  0  0  0  0  0
   11.5263    0.0600    0.0000 C   0  0  0  0  0  0  0  0  0  0  0  0
   12.3923   -1.4400    0.0000 C   0  0  0  0  0  0  0  0  0  0  0  0
   10.6603   -2.4400    0.0000 C   0  0  0  0  0  0  0  0  0  0  0  0
    5.4641   -1.4400    0.0000 C   0  0  0  0  0  0  0  0  0  0  0  0
    6.3301    0.0600    0.0000 C   0  0  0  0  0  0  0  0  0  0  0  0
   12.3923    0.5600    0.0000 C   0  0  0  0  0  0  0  0  0  0  0  0
   13.2583   -0.9400    0.0000 C   0  0  0  0  0  0  0  0  0  0  0  0
    4.5981   -0.9400    0.0000 C   0  0  0  0  0  0  0  0  0  0  0  0
    5.4641    0.5600    0.0000 C   0  0  0  0  0  0  0  0  0  0  0  0
   12.3923    1.5600    0.0000 C   0  0  0  0  0  0  0  0  0  0  0  0
   14.1244   -1.4400    0.0000 C   0  0  0  0  0  0  0  0  0  0  0  0
    3.7320   -1.4400    0.0000 C   0  0  0  0  0  0  0  0  0  0  0  0
    5.4641    1.5600    0.0000 C   0  0  0  0  0  0  0  0  0  0  0  0
   13.2583    2.0600    0.0000 C   0  0  0  0  0  0  0  0  0  0  0  0
   15.8564   -1.4400    0.0000 C   0  0  0  0  0  0  0  0  0  0  0  0
    2.0000   -1.4400    0.0000 C   0  0  0  0  0  0  0  0  0  0  0  0
    4.5981    3.0600    0.0000 C   0  0  0  0  0  0  0  0  0  0  0  0
   14.1244    3.5600    0.0000 C   0  0  0  0  0  0  0  0  0  0  0  0
    9.2573   -0.6300    0.0000 H   0  0  0  0  0  0  0  0  0  0  0  0
    8.5297   -1.9150    0.0000 H   0  0  0  0  0  0  0  0  0  0  0  0
    9.3267   -1.9150    0.0000 H   0  0  0  0  0  0  0  0  0  0  0  0
    7.5252   -0.6300    0.0000 H   0  0  0  0  0  0  0  0  0  0  0  0
   11.1972   -1.7500    0.0000 H   0  0  0  0  0  0  0  0  0  0  0  0
    6.7976   -1.9150    0.0000 H   0  0  0  0  0  0  0  0  0  0  0  0
    7.5947   -1.9150    0.0000 H   0  0  0  0  0  0  0  0  0  0  0  0
   10.4142    0.0600    0.0000 H   0  0  0  0  0  0  0  0  0  0  0  0
    9.7942    0.6800    0.0000 H   0  0  0  0  0  0  0  0  0  0  0  0
    9.1742    0.0600    0.0000 H   0  0  0  0  0  0  0  0  0  0  0  0
    8.6822    0.0600    0.0000 H   0  0  0  0  0  0  0  0  0  0  0  0
    8.0622    0.6800    0.0000 H   0  0  0  0  0  0  0  0  0  0  0  0
    7.4422    0.0600    0.0000 H   0  0  0  0  0  0  0  0  0  0  0  0
   11.3142    0.6426    0.0000 H   0  0  0  0  0  0  0  0  0  0  0  0
   10.9157   -0.0477    0.0000 H   0  0  0  0  0  0  0  0  0  0  0  0
   11.9938   -1.9150    0.0000 H   0  0  0  0  0  0  0  0  0  0  0  0
   12.7908   -1.9150    0.0000 H   0  0  0  0  0  0  0  0  0  0  0  0
    5.0656   -1.9150    0.0000 H   0  0  0  0  0  0  0  0  0  0  0  0
    5.8626   -1.9150    0.0000 H   0  0  0  0  0  0  0  0  0  0  0  0
    6.9407   -0.0477    0.0000 H   0  0  0  0  0  0  0  0  0  0  0  0
    6.5422    0.6426    0.0000 H   0  0  0  0  0  0  0  0  0  0  0  0
   12.6044   -0.0226    0.0000 H   0  0  0  0  0  0  0  0  0  0  0  0
   13.0029    0.6677    0.0000 H   0  0  0  0  0  0  0  0  0  0  0  0
   13.6569   -0.4651    0.0000 H   0  0  0  0  0  0  0  0  0  0  0  0
   12.8598   -0.4651    0.0000 H   0  0  0  0  0  0  0  0  0  0  0  0
    4.9966   -0.4651    0.0000 H   0  0  0  0  0  0  0  0  0  0  0  0
    4.1996   -0.4651    0.0000 H   0  0  0  0  0  0  0  0  0  0  0  0
    4.8535    0.6677    0.0000 H   0  0  0  0  0  0  0  0  0  0  0  0
    5.2520   -0.0226    0.0000 H   0  0  0  0  0  0  0  0  0  0  0  0
   12.1803    2.1426    0.0000 H   0  0  0  0  0  0  0  0  0  0  0  0
   11.7817    1.4523    0.0000 H   0  0  0  0  0  0  0  0  0  0  0  0
    9.7942   -3.5600    0.0000 H   0  0  0  0  0  0  0  0  0  0  0  0
   15.5464   -1.9769    0.0000 H   0  0  0  0  0  0  0  0  0  0  0  0
   16.3933   -1.7500    0.0000 H   0  0  0  0  0  0  0  0  0  0  0  0
   16.1664   -0.9031    0.0000 H   0  0  0  0  0  0  0  0  0  0  0  0
    1.6900   -0.9031    0.0000 H   0  0  0  0  0  0  0  0  0  0  0  0
    1.4631   -1.7500    0.0000 H   0  0  0  0  0  0  0  0  0  0  0  0
    2.3100   -1.9769    0.0000 H   0  0  0  0  0  0  0  0  0  0  0  0
    5.2181    3.0600    0.0000 H   0  0  0  0  0  0  0  0  0  0  0  0
    4.5981    3.6800    0.0000 H   0  0  0  0  0  0  0  0  0  0  0  0
    3.9781    3.0600    0.0000 H   0  0  0  0  0  0  0  0  0  0  0  0
   14.4344    3.0231    0.0000 H   0  0  0  0  0  0  0  0  0  0  0  0
   14.6613    3.8700    0.0000 H   0  0  0  0  0  0  0  0  0  0  0  0
   13.8144    4.0969    0.0000 H   0  0  0  0  0  0  0  0  0  0  0  0
  1 22  1  0  0  0  0
  1 69  1  0  0  0  0
  2 22  2  0  0  0  0
  3 30  1  0  0  0  0
  3 34  1  0  0  0  0
  4 30  2  0  0  0  0
  5 31  1  0  0  0  0
  5 35  1  0  0  0  0
  6 32  1  0  0  0  0
  6 36  1  0  0  0  0
  7 33  1  0  0  0  0
  7 37  1  0  0  0  0
  8 31  2  0  0  0  0
  9 32  2  0  0  0  0
 10 33  2  0  0  0  0
 11 16  1  0  0  0  0
 11 20  1  0  0  0  0
 11 21  1  0  0  0  0
 12 17  1  0  0  0  0
 12 23  1  0  0  0  0
 12 24  1  0  0  0  0
 13 14  1  0  0  0  0
 13 16  1  0  0  0  0
 13 18  1  0  0  0  0
 13 38  1  0  0  0  0
 14 15  1  0  0  0  0
 14 39  1  0  0  0  0
 14 40  1  0  0  0  0
 15 17  1  0  0  0  0
 15 19  1  0  0  0  0
 15 41  1  0  0  0  0
 16 22  1  0  0  0  0
 16 42  1  0  0  0  0
 17 43  1  0  0  0  0
 17 44  1  0  0  0  0
 18 45  1  0  0  0  0
 18 46  1  0  0  0  0
 18 47  1  0  0  0  0
 19 48  1  0  0  0  0
 19 49  1  0  0  0  0
 19 50  1  0  0  0  0
 20 25  1  0  0  0  0
 20 51  1  0  0  0  0
 20 52  1  0  0  0  0
 21 26  1  0  0  0  0
 21 53  1  0  0  0  0
 21 54  1  0  0  0  0
 23 27  1  0  0  0  0
 23 55  1  0  0  0  0
 23 56  1  0  0  0  0
 24 28  1  0  0  0  0
 24 57  1  0  0  0  0
 24 58  1  0  0  0  0
 25 29  1  0  0  0  0
 25 59  1  0  0  0  0
 25 60  1  0  0  0  0
 26 30  1  0  0  0  0
 26 61  1  0  0  0  0
 26 62  1  0  0  0  0
 27 31  1  0  0  0  0
 27 63  1  0  0  0  0
 27 64  1  0  0  0  0
 28 32  1  0  0  0  0
 28 65  1  0  0  0  0
 28 66  1  0  0  0  0
 29 33  1  0  0  0  0
 29 67  1  0  0  0  0
 29 68  1  0  0  0  0
 34 70  1  0  0  0  0
 34 71  1  0  0  0  0
 34 72  1  0  0  0  0
 35 73  1  0  0  0  0
 35 74  1  0  0  0  0
 35 75  1  0  0  0  0
 36 76  1  0  0  0  0
 36 77  1  0  0  0  0
 36 78  1  0  0  0  0
 37 79  1  0  0  0  0
 37 80  1  0  0  0  0
 37 81  1  0  0  0  0
M  END
> <PUBCHEM_COMPOUND_CID>
91221682

> <PUBCHEM_COMPOUND_CANONICALIZED>
1

> <PUBCHEM_CACTVS_COMPLEXITY>
710

> <PUBCHEM_CACTVS_HBOND_ACCEPTOR>
12

> <PUBCHEM_CACTVS_HBOND_DONOR>
1

> <PUBCHEM_CACTVS_ROTATABLE_BOND>
24

> <PUBCHEM_CACTVS_SUBSKEYS>
AAADcfB7PAAAAAAAAAAAAAAAAAAAAAAAAAAAAAAAAAAAAAAAAAAAHgAACAAADSjBgAYCCAMABgAIAACQCAAAAAAAAAAAAAGIAAACABoAgCAEQAAGAACQAAG8SBAOAAAAAAAAAAAAAAAAAAAAAAAAAAAAAA==

> <PUBCHEM_IUPAC_OPENEYE_NAME>
6-[bis(3-methoxy-3-oxo-propyl)amino]-2-[(4-methoxy-4-oxo-butyl)-(3-methoxy-3-oxo-propyl)amino]-3,5-dimethyl-hexanoic acid

> <PUBCHEM_IUPAC_CAS_NAME>
6-[bis(3-methoxy-3-oxopropyl)amino]-2-[(4-methoxy-4-oxobutyl)-(3-methoxy-3-oxopropyl)amino]-3,5-dimethylhexanoic acid

> <PUBCHEM_IUPAC_NAME_MARKUP>
6-[bis(3-methoxy-3-oxopropyl)amino]-2-[(4-methoxy-4-oxobutyl)-(3-methoxy-3-oxopropyl)amino]-3,5-dimethylhexanoic acid

> <PUBCHEM_IUPAC_NAME>
6-[bis(3-methoxy-3-oxopropyl)amino]-2-[(4-methoxy-4-oxobutyl)-(3-methoxy-3-oxopropyl)amino]-3,5-dimethylhexanoic acid

> <PUBCHEM_IUPAC_SYSTEMATIC_NAME>
6-[bis(3-methoxy-3-oxidanylidene-propyl)amino]-2-[(4-methoxy-4-oxidanylidene-butyl)-(3-methoxy-3-oxidanylidene-propyl)amino]-3,5-dimethyl-hexanoic acid

> <PUBCHEM_IUPAC_TRADITIONAL_NAME>
6-[bis(3-keto-3-methoxy-propyl)amino]-2-[(4-keto-4-methoxy-butyl)-(3-keto-3-methoxy-propyl)amino]-3,5-dimethyl-hexanoic acid

> <PUBCHEM_IUPAC_INCHI>
InChI=1S/C25H44N2O10/c1-18(17-26(13-9-21(29)35-4)14-10-22(30)36-5)16-19(2)24(25(32)33)27(15-11-23(31)37-6)12-7-8-20(28)34-3/h18-19,24H,7-17H2,1-6H3,(H,32,33)

> <PUBCHEM_IUPAC_INCHIKEY>
GPDZHMVOHODLJS-UHFFFAOYSA-N

> <PUBCHEM_XLOGP3_AA>
-0.8

> <PUBCHEM_EXACT_MASS>
532.29959560

> <PUBCHEM_MOLECULAR_FORMULA>
C25H44N2O10

> <PUBCHEM_MOLECULAR_WEIGHT>
532.6

> <PUBCHEM_OPENEYE_CAN_SMILES>
CC(CC(C)C(C(=O)O)N(CCCC(=O)OC)CCC(=O)OC)CN(CCC(=O)OC)CCC(=O)OC

> <PUBCHEM_OPENEYE_ISO_SMILES>
CC(CC(C)C(C(=O)O)N(CCCC(=O)OC)CCC(=O)OC)CN(CCC(=O)OC)CCC(=O)OC

> <PUBCHEM_CACTVS_TPSA>
149

> <PUBCHEM_MONOISOTOPIC_WEIGHT>
532.29959560

> <PUBCHEM_TOTAL_CHARGE>
0

> <PUBCHEM_HEAVY_ATOM_COUNT>
37

> <PUBCHEM_ATOM_DEF_STEREO_COUNT>
0

> <PUBCHEM_ATOM_UDEF_STEREO_COUNT>
3

> <PUBCHEM_BOND_DEF_STEREO_COUNT>
0

> <PUBCHEM_BOND_UDEF_STEREO_COUNT>
0

> <PUBCHEM_ISOTOPIC_ATOM_COUNT>
0

> <PUBCHEM_COMPONENT_COUNT>
1

> <PUBCHEM_CACTVS_TAUTO_COUNT>
-1

> <PUBCHEM_COORDINATE_TYPE>
1
5
255

> <PUBCHEM_BONDANNOTATIONS>
13  18  3
15  19  3
16  22  3

$$$$
