 
  -OEChem-10192104072D

 81 90  0     0  0  0  0  0  0999 V2000
    3.5674   -7.0414    0.0000 O   0  0  0  0  0  0  0  0  0  0  0  0
   11.4255    6.5693    0.0000 O   0  0  0  0  0  0  0  0  0  0  0  0
    2.6905   -1.0386    0.0000 O   0  0  0  0  0  0  0  0  0  0  0  0
    6.2886   -0.5386    0.0000 O   0  0  0  0  0  0  0  0  0  0  0  0
    5.4225    3.9614    0.0000 O   0  0  0  0  0  0  0  0  0  0  0  0
    7.1546    0.9614    0.0000 O   0  0  0  0  0  0  0  0  0  0  0  0
    3.6314   -5.0424    0.0000 N   0  0  0  0  0  0  0  0  0  0  0  0
    9.7263    5.5144    0.0000 N   0  0  0  0  0  0  0  0  0  0  0  0
    4.5565   -0.5386    0.0000 N   0  0  0  0  0  0  0  0  0  0  0  0
    6.2886    2.4614    0.0000 N   0  0  0  0  0  0  0  0  0  0  0  0
    3.6905    0.9614    0.0000 N   0  0  0  0  0  0  0  0  0  0  0  0
    5.4225    0.9614    0.0000 N   0  0  0  0  0  0  0  0  0  0  0  0
    4.5565    2.4614    0.0000 N   0  0  0  0  0  0  0  0  0  0  0  0
    2.7443    2.2661    0.0000 N   0  0  0  0  0  0  0  0  0  0  0  0
    2.1606    1.4614    0.0000 N   0  0  0  0  0  0  0  0  0  0  0  0
    3.6633   -4.0429    0.0000 C   0  0  0  0  0  0  0  0  0  0  0  0
    4.5565   -2.5386    0.0000 C   0  0  0  0  0  0  0  0  0  0  0  0
    4.5404   -3.5802    0.0000 C   0  0  0  0  0  0  0  0  0  0  0  0
    8.8768    4.9870    0.0000 C   0  0  0  0  0  0  0  0  0  0  0  0
    8.9146    3.9960    0.0000 C   0  0  0  0  0  0  0  0  0  0  0  0
    8.0206    3.4614    0.0000 C   0  0  0  0  0  0  0  0  0  0  0  0
    4.4809   -5.5698    0.0000 C   0  0  0  0  0  0  0  0  0  0  0  0
    2.7498   -5.5144    0.0000 C   0  0  0  0  0  0  0  0  0  0  0  0
   10.6079    5.0424    0.0000 C   0  0  0  0  0  0  0  0  0  0  0  0
    9.6944    6.5139    0.0000 C   0  0  0  0  0  0  0  0  0  0  0  0
    3.6905   -2.0386    0.0000 C   0  0  0  0  0  0  0  0  0  0  0  0
    5.4225   -2.0386    0.0000 C   0  0  0  0  0  0  0  0  0  0  0  0
    7.1546    3.9614    0.0000 C   0  0  0  0  0  0  0  0  0  0  0  0
    8.0206    2.4614    0.0000 C   0  0  0  0  0  0  0  0  0  0  0  0
    4.4490   -6.5693    0.0000 C   0  0  0  0  0  0  0  0  0  0  0  0
    2.7178   -6.5139    0.0000 C   0  0  0  0  0  0  0  0  0  0  0  0
    2.8176   -3.5250    0.0000 C   0  0  0  0  0  0  0  0  0  0  0  0
   11.4575    5.5698    0.0000 C   0  0  0  0  0  0  0  0  0  0  0  0
   10.5440    7.0414    0.0000 C   0  0  0  0  0  0  0  0  0  0  0  0
    8.0054    5.4605    0.0000 C   0  0  0  0  0  0  0  0  0  0  0  0
    2.8310   -2.5334    0.0000 C   0  0  0  0  0  0  0  0  0  0  0  0
    3.6905   -1.0386    0.0000 C   0  0  0  0  0  0  0  0  0  0  0  0
    5.4225   -1.0386    0.0000 C   0  0  0  0  0  0  0  0  0  0  0  0
    7.1533    4.9531    0.0000 C   0  0  0  0  0  0  0  0  0  0  0  0
    5.4385   -4.1079    0.0000 C   0  0  0  0  0  0  0  0  0  0  0  0
    6.2886    3.4614    0.0000 C   0  0  0  0  0  0  0  0  0  0  0  0
    9.8206    3.4822    0.0000 C   0  0  0  0  0  0  0  0  0  0  0  0
    7.1546    1.9614    0.0000 C   0  0  0  0  0  0  0  0  0  0  0  0
    4.5565    0.4614    0.0000 C   0  0  0  0  0  0  0  0  0  0  0  0
    6.3325   -2.5455    0.0000 C   0  0  0  0  0  0  0  0  0  0  0  0
    8.9146    1.9267    0.0000 C   0  0  0  0  0  0  0  0  0  0  0  0
    6.3406   -3.5871    0.0000 C   0  0  0  0  0  0  0  0  0  0  0  0
    5.4225    1.9614    0.0000 C   0  0  0  0  0  0  0  0  0  0  0  0
    9.8206    2.4405    0.0000 C   0  0  0  0  0  0  0  0  0  0  0  0
    3.6905    1.9614    0.0000 C   0  0  0  0  0  0  0  0  0  0  0  0
    2.7443    0.6566    0.0000 C   0  0  0  0  0  0  0  0  0  0  0  0
    2.0000   -0.0113    0.0000 C   0  0  0  0  0  0  0  0  0  0  0  0
    5.0878   -5.6970    0.0000 H   0  0  0  0  0  0  0  0  0  0  0  0
    4.7115   -4.9943    0.0000 H   0  0  0  0  0  0  0  0  0  0  0  0
    2.5565   -4.9254    0.0000 H   0  0  0  0  0  0  0  0  0  0  0  0
    2.1361   -5.6025    0.0000 H   0  0  0  0  0  0  0  0  0  0  0  0
   10.2248    4.5549    0.0000 H   0  0  0  0  0  0  0  0  0  0  0  0
   11.0214    4.5804    0.0000 H   0  0  0  0  0  0  0  0  0  0  0  0
    9.4638    7.0895    0.0000 H   0  0  0  0  0  0  0  0  0  0  0  0
    9.0875    6.3868    0.0000 H   0  0  0  0  0  0  0  0  0  0  0  0
    4.6423   -7.1584    0.0000 H   0  0  0  0  0  0  0  0  0  0  0  0
    5.0627   -6.4812    0.0000 H   0  0  0  0  0  0  0  0  0  0  0  0
    2.1110   -6.3868    0.0000 H   0  0  0  0  0  0  0  0  0  0  0  0
    2.4872   -7.0895    0.0000 H   0  0  0  0  0  0  0  0  0  0  0  0
    2.2746   -3.8244    0.0000 H   0  0  0  0  0  0  0  0  0  0  0  0
   11.6881    4.9943    0.0000 H   0  0  0  0  0  0  0  0  0  0  0  0
   12.0643    5.6970    0.0000 H   0  0  0  0  0  0  0  0  0  0  0  0
   10.9271    7.5288    0.0000 H   0  0  0  0  0  0  0  0  0  0  0  0
   10.1304    7.5033    0.0000 H   0  0  0  0  0  0  0  0  0  0  0  0
    7.9932    6.0804    0.0000 H   0  0  0  0  0  0  0  0  0  0  0  0
    2.2964   -2.2194    0.0000 H   0  0  0  0  0  0  0  0  0  0  0  0
    6.6141    5.2591    0.0000 H   0  0  0  0  0  0  0  0  0  0  0  0
    5.4361   -4.7279    0.0000 H   0  0  0  0  0  0  0  0  0  0  0  0
   10.3564    3.7942    0.0000 H   0  0  0  0  0  0  0  0  0  0  0  0
    6.8658   -2.2293    0.0000 H   0  0  0  0  0  0  0  0  0  0  0  0
    8.9074    1.3067    0.0000 H   0  0  0  0  0  0  0  0  0  0  0  0
    6.8787   -3.8950    0.0000 H   0  0  0  0  0  0  0  0  0  0  0  0
   10.3564    2.1285    0.0000 H   0  0  0  0  0  0  0  0  0  0  0  0
    1.5859    0.4502    0.0000 H   0  0  0  0  0  0  0  0  0  0  0  0
    1.5386   -0.4254    0.0000 H   0  0  0  0  0  0  0  0  0  0  0  0
    2.4141   -0.4727    0.0000 H   0  0  0  0  0  0  0  0  0  0  0  0
  1 30  1  0  0  0  0
  1 31  1  0  0  0  0
  2 33  1  0  0  0  0
  2 34  1  0  0  0  0
  3 37  2  0  0  0  0
  4 38  2  0  0  0  0
  5 41  2  0  0  0  0
  6 43  2  0  0  0  0
  7 16  1  0  0  0  0
  7 22  1  0  0  0  0
  7 23  1  0  0  0  0
  8 19  1  0  0  0  0
  8 24  1  0  0  0  0
  8 25  1  0  0  0  0
  9 37  1  0  0  0  0
  9 38  1  0  0  0  0
  9 44  1  0  0  0  0
 10 41  1  0  0  0  0
 10 43  1  0  0  0  0
 10 48  1  0  0  0  0
 11 44  1  0  0  0  0
 11 50  1  0  0  0  0
 11 51  1  0  0  0  0
 12 44  2  0  0  0  0
 12 48  1  0  0  0  0
 13 48  2  0  0  0  0
 13 50  1  0  0  0  0
 14 15  1  0  0  0  0
 14 50  2  0  0  0  0
 15 51  2  0  0  0  0
 16 18  2  0  0  0  0
 16 32  1  0  0  0  0
 17 18  1  0  0  0  0
 17 26  2  0  0  0  0
 17 27  1  0  0  0  0
 18 40  1  0  0  0  0
 19 20  2  0  0  0  0
 19 35  1  0  0  0  0
 20 21  1  0  0  0  0
 20 42  1  0  0  0  0
 21 28  2  0  0  0  0
 21 29  1  0  0  0  0
 22 30  1  0  0  0  0
 22 53  1  0  0  0  0
 22 54  1  0  0  0  0
 23 31  1  0  0  0  0
 23 55  1  0  0  0  0
 23 56  1  0  0  0  0
 24 33  1  0  0  0  0
 24 57  1  0  0  0  0
 24 58  1  0  0  0  0
 25 34  1  0  0  0  0
 25 59  1  0  0  0  0
 25 60  1  0  0  0  0
 26 36  1  0  0  0  0
 26 37  1  0  0  0  0
 27 38  1  0  0  0  0
 27 45  2  0  0  0  0
 28 39  1  0  0  0  0
 28 41  1  0  0  0  0
 29 43  1  0  0  0  0
 29 46  2  0  0  0  0
 30 61  1  0  0  0  0
 30 62  1  0  0  0  0
 31 63  1  0  0  0  0
 31 64  1  0  0  0  0
 32 36  2  0  0  0  0
 32 65  1  0  0  0  0
 33 66  1  0  0  0  0
 33 67  1  0  0  0  0
 34 68  1  0  0  0  0
 34 69  1  0  0  0  0
 35 39  2  0  0  0  0
 35 70  1  0  0  0  0
 36 71  1  0  0  0  0
 39 72  1  0  0  0  0
 40 47  2  0  0  0  0
 40 73  1  0  0  0  0
 42 49  2  0  0  0  0
 42 74  1  0  0  0  0
 45 47  1  0  0  0  0
 45 75  1  0  0  0  0
 46 49  1  0  0  0  0
 46 76  1  0  0  0  0
 47 77  1  0  0  0  0
 49 78  1  0  0  0  0
 51 52  1  0  0  0  0
 52 79  1  0  0  0  0
 52 80  1  0  0  0  0
 52 81  1  0  0  0  0
M  END
> <PUBCHEM_COMPOUND_CID>
5061835

> <PUBCHEM_COMPOUND_CANONICALIZED>
1

> <PUBCHEM_CACTVS_COMPLEXITY>
1440

> <PUBCHEM_CACTVS_HBOND_ACCEPTOR>
12

> <PUBCHEM_CACTVS_HBOND_DONOR>
0

> <PUBCHEM_CACTVS_ROTATABLE_BOND>
4

> <PUBCHEM_CACTVS_SUBSKEYS>
AAADceB/+AAAAAAAAAAAAAAAAAAAAWAAAAA8ePHiwAAAAFjx9AAAHgAIAAAADAjhmwYz0McMHACqAidydACSgAslAqAdiAEYZMiKKDLAnZGHIQhojSLYyYcYi8CeiAACQAASAAAQAASAACQAAAAAAAAAAA==

> <PUBCHEM_IUPAC_OPENEYE_NAME>
2-[3-methyl-5-(6-morpholino-1,3-dioxo-benzo[de]isoquinolin-2-yl)-[1,2,4]triazolo[4,3-a][1,3,5]triazin-7-yl]-6-morpholino-benzo[de]isoquinoline-1,3-dione

> <PUBCHEM_IUPAC_CAS_NAME>
2-[3-methyl-5-[6-(4-morpholinyl)-1,3-dioxo-2-benzo[de]isoquinolinyl]-[1,2,4]triazolo[4,3-a][1,3,5]triazin-7-yl]-6-(4-morpholinyl)benzo[de]isoquinoline-1,3-dione

> <PUBCHEM_IUPAC_NAME_MARKUP>
2-[3-methyl-5-(6-morpholin-4-yl-1,3-dioxobenzo[de]isoquinolin-2-yl)-[1,2,4]triazolo[4,3-a][1,3,5]triazin-7-yl]-6-morpholin-4-ylbenzo[de]isoquinoline-1,3-dione

> <PUBCHEM_IUPAC_NAME>
2-[3-methyl-5-(6-morpholin-4-yl-1,3-dioxobenzo[de]isoquinolin-2-yl)-[1,2,4]triazolo[4,3-a][1,3,5]triazin-7-yl]-6-morpholin-4-ylbenzo[de]isoquinoline-1,3-dione

> <PUBCHEM_IUPAC_SYSTEMATIC_NAME>
2-[3-methyl-5-[6-morpholin-4-yl-1,3-bis(oxidanylidene)benzo[de]isoquinolin-2-yl]-[1,2,4]triazolo[4,3-a][1,3,5]triazin-7-yl]-6-morpholin-4-yl-benzo[de]isoquinoline-1,3-dione

> <PUBCHEM_IUPAC_TRADITIONAL_NAME>
2-[5-(1,3-diketo-6-morpholino-benzo[de]isoquinolin-2-yl)-3-methyl-[1,2,4]triazolo[4,3-a][1,3,5]triazin-7-yl]-6-morpholino-benzo[de]isoquinoline-1,3-quinone

> <PUBCHEM_IUPAC_INCHI>
InChI=1S/C37H29N9O6/c1-20-40-41-36-38-35(45-31(47)23-6-2-4-21-27(42-12-16-51-17-13-42)10-8-25(29(21)23)32(45)48)39-37(44(20)36)46-33(49)24-7-3-5-22-28(43-14-18-52-19-15-43)11-9-26(30(22)24)34(46)50/h2-11H,12-19H2,1H3

> <PUBCHEM_IUPAC_INCHIKEY>
IVCFLAUNNVKNPN-UHFFFAOYSA-N

> <PUBCHEM_XLOGP3_AA>
4.4

> <PUBCHEM_EXACT_MASS>
695.22407968

> <PUBCHEM_MOLECULAR_FORMULA>
C37H29N9O6

> <PUBCHEM_MOLECULAR_WEIGHT>
695.7

> <PUBCHEM_OPENEYE_CAN_SMILES>
CC1=NN=C2N1C(=NC(=N2)N3C(=O)C4=C5C(=C(C=C4)N6CCOCC6)C=CC=C5C3=O)N7C(=O)C8=C9C(=C(C=C8)N1CCOCC1)C=CC=C9C7=O

> <PUBCHEM_OPENEYE_ISO_SMILES>
CC1=NN=C2N1C(=NC(=N2)N3C(=O)C4=C5C(=C(C=C4)N6CCOCC6)C=CC=C5C3=O)N7C(=O)C8=C9C(=C(C=C8)N1CCOCC1)C=CC=C9C7=O

> <PUBCHEM_CACTVS_TPSA>
156

> <PUBCHEM_MONOISOTOPIC_WEIGHT>
695.22407968

> <PUBCHEM_TOTAL_CHARGE>
0

> <PUBCHEM_HEAVY_ATOM_COUNT>
52

> <PUBCHEM_ATOM_DEF_STEREO_COUNT>
0

> <PUBCHEM_ATOM_UDEF_STEREO_COUNT>
0

> <PUBCHEM_BOND_DEF_STEREO_COUNT>
0

> <PUBCHEM_BOND_UDEF_STEREO_COUNT>
0

> <PUBCHEM_ISOTOPIC_ATOM_COUNT>
0

> <PUBCHEM_COMPONENT_COUNT>
1

> <PUBCHEM_CACTVS_TAUTO_COUNT>
-1

> <PUBCHEM_COORDINATE_TYPE>
1
5
255

> <PUBCHEM_BONDANNOTATIONS>
11  44  8
11  50  8
11  51  8
12  44  8
12  48  8
13  48  8
13  50  8
14  15  8
14  50  8
15  51  8
16  18  8
16  32  8
17  18  8
17  26  8
17  27  8
18  40  8
19  20  8
19  35  8
20  21  8
20  42  8
21  28  8
21  29  8
26  36  8
27  45  8
28  39  8
29  46  8
32  36  8
35  39  8
40  47  8
42  49  8
45  47  8
46  49  8

$$$$
