 
  -OEChem-10192103472D

 27 27  0     1  0  0  0  0  0999 V2000
    5.5929   -0.7173    0.0000 O   0  0  0  0  0  0  0  0  0  0  0  0
    2.5896   -0.1264    0.0000 O   0  0  0  0  0  0  0  0  0  0  0  0
    4.2268    2.3215    0.0000 O   0  0  0  0  0  0  0  0  0  0  0  0
    4.4118   -2.4399    0.0000 O   0  0  0  0  0  0  0  0  0  0  0  0
    3.1249    1.5209    0.0000 O   0  0  0  0  0  0  0  0  0  0  0  0
    7.0609    1.5209    0.0000 O   0  0  0  0  0  0  0  0  0  0  0  0
    3.0106   -1.4218    0.0000 O   0  0  0  0  0  0  0  0  0  0  0  0
    5.9589    2.3215    0.0000 N   0  0  0  0  0  0  0  0  0  0  0  0
    7.5961   -0.1264    0.0000 N   0  0  0  0  0  0  0  0  0  0  0  0
    5.0929    0.8215    0.0000 C   0  0  3  0  0  0  0  0  0  0  0  0
    4.2839    0.2337    0.0000 C   0  0  3  0  0  0  0  0  0  0  0  0
    5.9019    0.2337    0.0000 C   0  0  3  0  0  0  0  0  0  0  0  0
    4.5929   -0.7173    0.0000 C   0  0  3  0  0  0  0  0  0  0  0  0
    5.0929    1.8215    0.0000 C   0  0  0  0  0  0  0  0  0  0  0  0
    3.3328    0.5427    0.0000 C   0  0  0  0  0  0  0  0  0  0  0  0
    6.8530    0.5427    0.0000 C   0  0  0  0  0  0  0  0  0  0  0  0
    4.0051   -1.5264    0.0000 C   0  0  0  0  0  0  0  0  0  0  0  0
    5.6453    1.1030    0.0000 H   0  0  0  0  0  0  0  0  0  0  0  0
    3.8454   -0.2047    0.0000 H   0  0  0  0  0  0  0  0  0  0  0  0
    6.3403   -0.2047    0.0000 H   0  0  0  0  0  0  0  0  0  0  0  0
    4.8744   -1.2698    0.0000 H   0  0  0  0  0  0  0  0  0  0  0  0
    5.9589    2.9415    0.0000 H   0  0  0  0  0  0  0  0  0  0  0  0
    6.4958    2.0115    0.0000 H   0  0  0  0  0  0  0  0  0  0  0  0
    8.1858    0.0652    0.0000 H   0  0  0  0  0  0  0  0  0  0  0  0
    7.4672   -0.7329    0.0000 H   0  0  0  0  0  0  0  0  0  0  0  0
    2.0000    0.0652    0.0000 H   0  0  0  0  0  0  0  0  0  0  0  0
    4.0474   -2.9415    0.0000 H   0  0  0  0  0  0  0  0  0  0  0  0
  1 12  1  0  0  0  0
  1 13  1  0  0  0  0
  2 15  1  0  0  0  0
  2 26  1  0  0  0  0
  3 14  2  0  0  0  0
  4 17  1  0  0  0  0
  4 27  1  0  0  0  0
  5 15  2  0  0  0  0
  6 16  2  0  0  0  0
  7 17  2  0  0  0  0
  8 14  1  0  0  0  0
  8 22  1  0  0  0  0
  8 23  1  0  0  0  0
  9 16  1  0  0  0  0
  9 24  1  0  0  0  0
  9 25  1  0  0  0  0
 10 11  1  0  0  0  0
 10 12  1  0  0  0  0
 10 14  1  0  0  0  0
 10 18  1  0  0  0  0
 11 13  1  0  0  0  0
 11 15  1  0  0  0  0
 11 19  1  0  0  0  0
 12 16  1  0  0  0  0
 12 20  1  0  0  0  0
 13 17  1  0  0  0  0
 13 21  1  0  0  0  0
M  END
> <PUBCHEM_COMPOUND_CID>
70637109

> <PUBCHEM_COMPOUND_CANONICALIZED>
1

> <PUBCHEM_CACTVS_COMPLEXITY>
393

> <PUBCHEM_CACTVS_HBOND_ACCEPTOR>
7

> <PUBCHEM_CACTVS_HBOND_DONOR>
4

> <PUBCHEM_CACTVS_ROTATABLE_BOND>
4

> <PUBCHEM_CACTVS_SUBSKEYS>
AAADccBzOAAAAAAAAAAAAAAAAAAAASAAAAAAAAAAAAAAAAAAAAAAHgAQCAAADRShgAIACABABgAIAAGQGAIAAAAAAAAAAAFAAAADABYAgAQDQAAHMAADAAH/fwROgAAAAAAAAAAAAAAAAAAAAAAAAAAAAA==

> <PUBCHEM_IUPAC_OPENEYE_NAME>
4,5-dicarbamoyltetrahydrofuran-2,3-dicarboxylic acid

> <PUBCHEM_IUPAC_CAS_NAME>
4,5-dicarbamoyloxolane-2,3-dicarboxylic acid

> <PUBCHEM_IUPAC_NAME_MARKUP>
4,5-dicarbamoyloxolane-2,3-dicarboxylic acid

> <PUBCHEM_IUPAC_NAME>
4,5-dicarbamoyloxolane-2,3-dicarboxylic acid

> <PUBCHEM_IUPAC_SYSTEMATIC_NAME>
4,5-diaminocarbonyloxolane-2,3-dicarboxylic acid

> <PUBCHEM_IUPAC_TRADITIONAL_NAME>
4,5-dicarbamoyltetrahydrofuran-2,3-dicarboxylic acid

> <PUBCHEM_IUPAC_INCHI>
InChI=1S/C8H10N2O7/c9-5(11)1-2(7(13)14)4(8(15)16)17-3(1)6(10)12/h1-4H,(H2,9,11)(H2,10,12)(H,13,14)(H,15,16)

> <PUBCHEM_IUPAC_INCHIKEY>
XLUPYYMWJZUBBC-UHFFFAOYSA-N

> <PUBCHEM_XLOGP3_AA>
-3.1

> <PUBCHEM_EXACT_MASS>
246.04880066

> <PUBCHEM_MOLECULAR_FORMULA>
C8H10N2O7

> <PUBCHEM_MOLECULAR_WEIGHT>
246.17

> <PUBCHEM_OPENEYE_CAN_SMILES>
C1(C(C(OC1C(=O)N)C(=O)O)C(=O)O)C(=O)N

> <PUBCHEM_OPENEYE_ISO_SMILES>
C1(C(C(OC1C(=O)N)C(=O)O)C(=O)O)C(=O)N

> <PUBCHEM_CACTVS_TPSA>
170

> <PUBCHEM_MONOISOTOPIC_WEIGHT>
246.04880066

> <PUBCHEM_TOTAL_CHARGE>
0

> <PUBCHEM_HEAVY_ATOM_COUNT>
17

> <PUBCHEM_ATOM_DEF_STEREO_COUNT>
0

> <PUBCHEM_ATOM_UDEF_STEREO_COUNT>
4

> <PUBCHEM_BOND_DEF_STEREO_COUNT>
0

> <PUBCHEM_BOND_UDEF_STEREO_COUNT>
0

> <PUBCHEM_ISOTOPIC_ATOM_COUNT>
0

> <PUBCHEM_COMPONENT_COUNT>
1

> <PUBCHEM_CACTVS_TAUTO_COUNT>
-1

> <PUBCHEM_COORDINATE_TYPE>
1
5
255

> <PUBCHEM_BONDANNOTATIONS>
10  14  3
11  15  3
12  16  3
13  17  3

$$$$
