 
  -OEChem-10192103392D

 82 88  0     1  0  0  0  0  0999 V2000
    5.9134    2.1852    0.0000 P   0  0  3  0  0  0  0  0  0  0  0  0
    5.2686   -1.2679    0.0000 O   0  0  0  0  0  0  0  0  0  0  0  0
    7.7550   -0.4675    0.0000 O   0  0  0  0  0  0  0  0  0  0  0  0
    7.7522   -2.0769    0.0000 O   0  0  0  0  0  0  0  0  0  0  0  0
    7.6791    4.6854    0.0000 O   0  0  0  0  0  0  0  0  0  0  0  0
    5.6061    3.1368    0.0000 O   0  0  0  0  0  0  0  0  0  0  0  0
    6.2208    1.2337    0.0000 O   0  0  0  0  0  0  0  0  0  0  0  0
    5.1574    5.2656    0.0000 O   0  0  0  0  0  0  0  0  0  0  0  0
    8.7693    2.9040    0.0000 O   0  0  0  0  0  0  0  0  0  0  0  0
    6.8650    2.4926    0.0000 O   0  0  0  0  0  0  0  0  0  0  0  0
    4.9618    1.8779    0.0000 O   0  0  0  0  0  0  0  0  0  0  0  0
    8.7656    6.1662    0.0000 O   0  0  0  0  0  0  0  0  0  0  0  0
    7.3621    9.3332    0.0000 O   0  0  0  0  0  0  0  0  0  0  0  0
    2.0000   -5.8332    0.0000 O   0  0  0  0  0  0  0  0  0  0  0  0
    5.5443   -3.0285    0.0000 N   0  0  0  0  0  0  0  0  0  0  0  0
    7.0434    6.3502    0.0000 N   0  0  0  0  0  0  0  0  0  0  0  0
    5.5443   -4.6379    0.0000 N   0  0  0  0  0  0  0  0  0  0  0  0
    3.7320   -2.8332    0.0000 N   0  0  0  0  0  0  0  0  0  0  0  0
    8.0639    7.7497    0.0000 N   0  0  0  0  0  0  0  0  0  0  0  0
    2.8660   -4.3332    0.0000 N   0  0  0  0  0  0  0  0  0  0  0  0
    3.7320   -5.8332    0.0000 N   0  0  0  0  0  0  0  0  0  0  0  0
    6.8083   -0.7706    0.0000 C   0  0  1  0  0  0  0  0  0  0  0  0
    6.8066   -1.7706    0.0000 C   0  0  2  0  0  0  0  0  0  0  0  0
    5.8578   -0.4599    0.0000 C   0  0  1  0  0  0  0  0  0  0  0  0
    5.8550   -2.0779    0.0000 C   0  0  1  0  0  0  0  0  0  0  0  0
    6.2765    3.8788    0.0000 C   0  0  1  0  0  0  0  0  0  0  0  0
    5.5504    0.4917    0.0000 C   0  0  0  0  0  0  0  0  0  0  0  0
    6.0703    4.8573    0.0000 C   0  0  2  0  0  0  0  0  0  0  0  0
    7.2708    3.7726    0.0000 C   0  0  1  0  0  0  0  0  0  0  0  0
    6.9372    5.3558    0.0000 C   0  0  1  0  0  0  0  0  0  0  0  0
    8.3372   -1.2732    0.0000 C   0  0  0  0  0  0  0  0  0  0  0  0
    7.7693    2.9057    0.0000 C   0  0  0  0  0  0  0  0  0  0  0  0
    4.5981   -3.3332    0.0000 C   0  0  0  0  0  0  0  0  0  0  0  0
    6.1279   -3.8332    0.0000 C   0  0  0  0  0  0  0  0  0  0  0  0
    4.5981   -4.3332    0.0000 C   0  0  0  0  0  0  0  0  0  0  0  0
    7.9576    6.7553    0.0000 C   0  0  0  0  0  0  0  0  0  0  0  0
    6.2354    6.9394    0.0000 C   0  0  0  0  0  0  0  0  0  0  0  0
    4.3474    4.6793    0.0000 C   0  0  0  0  0  0  0  0  0  0  0  0
    3.7320   -4.8332    0.0000 C   0  0  0  0  0  0  0  0  0  0  0  0
    6.3416    7.9337    0.0000 C   0  0  0  0  0  0  0  0  0  0  0  0
    2.8660   -3.3332    0.0000 C   0  0  0  0  0  0  0  0  0  0  0  0
    7.2559    8.3389    0.0000 C   0  0  0  0  0  0  0  0  0  0  0  0
    9.2678    2.0371    0.0000 C   0  0  0  0  0  0  0  0  0  0  0  0
    2.8660   -6.3332    0.0000 C   0  0  0  0  0  0  0  0  0  0  0  0
    2.8660   -7.3332    0.0000 C   0  0  0  0  0  0  0  0  0  0  0  0
    3.7320   -7.8332    0.0000 C   0  0  0  0  0  0  0  0  0  0  0  0
    2.0000   -7.8332    0.0000 C   0  0  0  0  0  0  0  0  0  0  0  0
    3.7320   -8.8332    0.0000 C   0  0  0  0  0  0  0  0  0  0  0  0
    2.0000   -8.8332    0.0000 C   0  0  0  0  0  0  0  0  0  0  0  0
    2.8660   -9.3332    0.0000 C   0  0  0  0  0  0  0  0  0  0  0  0
    6.8108    0.0794    0.0000 H   0  0  0  0  0  0  0  0  0  0  0  0
    6.8062   -2.6206    0.0000 H   0  0  0  0  0  0  0  0  0  0  0  0
    5.2456   -0.3619    0.0000 H   0  0  0  0  0  0  0  0  0  0  0  0
    5.2424   -2.1739    0.0000 H   0  0  0  0  0  0  0  0  0  0  0  0
    6.4977    3.2996    0.0000 H   0  0  0  0  0  0  0  0  0  0  0  0
    5.1695    0.9809    0.0000 H   0  0  0  0  0  0  0  0  0  0  0  0
    5.0025    0.2016    0.0000 H   0  0  0  0  0  0  0  0  0  0  0  0
    5.5878    4.4680    0.0000 H   0  0  0  0  0  0  0  0  0  0  0  0
    7.8900    3.8040    0.0000 H   0  0  0  0  0  0  0  0  0  0  0  0
    6.4178    5.6944    0.0000 H   0  0  0  0  0  0  0  0  0  0  0  0
    8.7974   -1.6887    0.0000 H   0  0  0  0  0  0  0  0  0  0  0  0
    8.7988   -0.8593    0.0000 H   0  0  0  0  0  0  0  0  0  0  0  0
    7.1863    2.6947    0.0000 H   0  0  0  0  0  0  0  0  0  0  0  0
    7.8759    2.2949    0.0000 H   0  0  0  0  0  0  0  0  0  0  0  0
    6.7479   -3.8332    0.0000 H   0  0  0  0  0  0  0  0  0  0  0  0
    5.6686    6.6882    0.0000 H   0  0  0  0  0  0  0  0  0  0  0  0
    3.9838    5.1815    0.0000 H   0  0  0  0  0  0  0  0  0  0  0  0
    3.8452    4.3157    0.0000 H   0  0  0  0  0  0  0  0  0  0  0  0
    4.7109    4.1771    0.0000 H   0  0  0  0  0  0  0  0  0  0  0  0
    7.3250    2.0770    0.0000 H   0  0  0  0  0  0  0  0  0  0  0  0
    8.6307    8.0009    0.0000 H   0  0  0  0  0  0  0  0  0  0  0  0
    5.8407    8.2990    0.0000 H   0  0  0  0  0  0  0  0  0  0  0  0
    2.3291   -3.0232    0.0000 H   0  0  0  0  0  0  0  0  0  0  0  0
    8.7303    1.7280    0.0000 H   0  0  0  0  0  0  0  0  0  0  0  0
    9.5769    1.4996    0.0000 H   0  0  0  0  0  0  0  0  0  0  0  0
    9.8053    2.3461    0.0000 H   0  0  0  0  0  0  0  0  0  0  0  0
    4.2690   -6.1432    0.0000 H   0  0  0  0  0  0  0  0  0  0  0  0
    4.2690   -7.5232    0.0000 H   0  0  0  0  0  0  0  0  0  0  0  0
    1.4631   -7.5232    0.0000 H   0  0  0  0  0  0  0  0  0  0  0  0
    4.2690   -9.1432    0.0000 H   0  0  0  0  0  0  0  0  0  0  0  0
    1.4631   -9.1432    0.0000 H   0  0  0  0  0  0  0  0  0  0  0  0
    2.8660   -9.9532    0.0000 H   0  0  0  0  0  0  0  0  0  0  0  0
  1  6  1  0  0  0  0
  1  7  1  0  0  0  0
  1 10  1  0  0  0  0
  1 11  2  0  0  0  0
  2 24  1  0  0  0  0
  2 25  1  0  0  0  0
  3 22  1  0  0  0  0
  3 31  1  0  0  0  0
  4 23  1  0  0  0  0
  4 31  1  0  0  0  0
  5 29  1  0  0  0  0
  5 30  1  0  0  0  0
 26  6  1  1  0  0  0
  7 27  1  0  0  0  0
 28  8  1  1  0  0  0
  8 38  1  0  0  0  0
  9 32  1  0  0  0  0
  9 43  1  0  0  0  0
 10 70  1  0  0  0  0
 12 36  2  0  0  0  0
 13 42  2  0  0  0  0
 14 44  2  0  0  0  0
 25 15  1  6  0  0  0
 15 33  1  0  0  0  0
 15 34  1  0  0  0  0
 30 16  1  6  0  0  0
 16 36  1  0  0  0  0
 16 37  1  0  0  0  0
 17 34  2  0  0  0  0
 17 35  1  0  0  0  0
 18 33  2  0  0  0  0
 18 41  1  0  0  0  0
 19 36  1  0  0  0  0
 19 42  1  0  0  0  0
 19 71  1  0  0  0  0
 20 39  1  0  0  0  0
 20 41  2  0  0  0  0
 21 39  1  0  0  0  0
 21 44  1  0  0  0  0
 21 77  1  0  0  0  0
 22 23  1  0  0  0  0
 22 24  1  0  0  0  0
 22 51  1  6  0  0  0
 23 25  1  0  0  0  0
 23 52  1  6  0  0  0
 24 27  1  6  0  0  0
 24 53  1  0  0  0  0
 25 54  1  0  0  0  0
 26 28  1  0  0  0  0
 26 29  1  0  0  0  0
 26 55  1  0  0  0  0
 27 56  1  0  0  0  0
 27 57  1  0  0  0  0
 28 30  1  0  0  0  0
 28 58  1  0  0  0  0
 29 32  1  6  0  0  0
 29 59  1  0  0  0  0
 30 60  1  0  0  0  0
 31 61  1  0  0  0  0
 31 62  1  0  0  0  0
 32 63  1  0  0  0  0
 32 64  1  0  0  0  0
 33 35  1  0  0  0  0
 34 65  1  0  0  0  0
 35 39  2  0  0  0  0
 37 40  2  0  0  0  0
 37 66  1  0  0  0  0
 38 67  1  0  0  0  0
 38 68  1  0  0  0  0
 38 69  1  0  0  0  0
 40 42  1  0  0  0  0
 40 72  1  0  0  0  0
 41 73  1  0  0  0  0
 43 74  1  0  0  0  0
 43 75  1  0  0  0  0
 43 76  1  0  0  0  0
 44 45  1  0  0  0  0
 45 46  2  0  0  0  0
 45 47  1  0  0  0  0
 46 48  1  0  0  0  0
 46 78  1  0  0  0  0
 47 49  2  0  0  0  0
 47 79  1  0  0  0  0
 48 50  2  0  0  0  0
 48 80  1  0  0  0  0
 49 50  1  0  0  0  0
 49 81  1  0  0  0  0
 50 82  1  0  0  0  0
M  END
> <PUBCHEM_COMPOUND_CID>
12994357

> <PUBCHEM_COMPOUND_CANONICALIZED>
1

> <PUBCHEM_CACTVS_COMPLEXITY>
1340

> <PUBCHEM_CACTVS_HBOND_ACCEPTOR>
16

> <PUBCHEM_CACTVS_HBOND_DONOR>
3

> <PUBCHEM_CACTVS_ROTATABLE_BOND>
12

> <PUBCHEM_CACTVS_SUBSKEYS>
AAADcfB7vAIAAAAAAAAAAAAAAAAAAWJEiQA8QIAAAAASAFgB/AAAHgAQCCAADBzhnwc3+L/MFRCoQyd3dICCgC01EqAJ2CEoVNibaDLA3VG/JQhvlyLeief4uAqOAAAAAAAAAAAAAAAAAAAAAAAAAAAAAA==

> <PUBCHEM_IUPAC_OPENEYE_NAME>
[(3aR,4R,6R,6aR)-4-(6-benzamidopurin-9-yl)-3a,4,6,6a-tetrahydrofuro[3,4-d][1,3]dioxol-6-yl]methyl [(2R,3R,4R,5R)-5-(2,4-dioxopyrimidin-1-yl)-4-methoxy-2-(methoxymethyl)tetrahydrofuran-3-yl] hydrogen phosphate

> <PUBCHEM_IUPAC_CAS_NAME>
[(3aR,4R,6R,6aR)-4-(6-benzamido-9-purinyl)-3a,4,6,6a-tetrahydrofuro[3,4-d][1,3]dioxol-6-yl]methyl [(2R,3R,4R,5R)-5-(2,4-dioxo-1-pyrimidinyl)-4-methoxy-2-(methoxymethyl)-3-oxolanyl] hydrogen phosphate

> <PUBCHEM_IUPAC_NAME_MARKUP>
[(3<I>a</I><I>R</I>,4<I>R</I>,6<I>R</I>,6<I>a</I><I>R</I>)-4-(6-benzamidopurin-9-yl)-3<I>a</I>,4,6,6<I>a</I>-tetrahydrofuro[3,4-d][1,3]dioxol-6-yl]methyl [(2<I>R</I>,3<I>R</I>,4<I>R</I>,5<I>R</I>)-5-(2,4-dioxopyrimidin-1-yl)-4-methoxy-2-(methoxymethyl)oxolan-3-yl] hydrogen phosphate

> <PUBCHEM_IUPAC_NAME>
[(3aR,4R,6R,6aR)-4-(6-benzamidopurin-9-yl)-3a,4,6,6a-tetrahydrofuro[3,4-d][1,3]dioxol-6-yl]methyl [(2R,3R,4R,5R)-5-(2,4-dioxopyrimidin-1-yl)-4-methoxy-2-(methoxymethyl)oxolan-3-yl] hydrogen phosphate

> <PUBCHEM_IUPAC_SYSTEMATIC_NAME>
[(3aR,4R,6R,6aR)-4-(6-benzamidopurin-9-yl)-3a,4,6,6a-tetrahydrofuro[3,4-d][1,3]dioxol-6-yl]methyl [(2R,3R,4R,5R)-5-[2,4-bis(oxidanylidene)pyrimidin-1-yl]-4-methoxy-2-(methoxymethyl)oxolan-3-yl] hydrogen phosphate

> <PUBCHEM_IUPAC_TRADITIONAL_NAME>
[(3aR,4R,6R,6aR)-4-(6-benzamidopurin-9-yl)-3a,4,6,6a-tetrahydrofuro[3,4-d][1,3]dioxol-6-yl]methyl [(2R,3R,4R,5R)-5-(2,4-diketopyrimidin-1-yl)-4-methoxy-2-(methoxymethyl)tetrahydrofuran-3-yl] hydrogen phosphate

> <PUBCHEM_IUPAC_INCHI>
InChI=1S/C29H32N7O13P/c1-42-10-16-21(22(43-2)27(47-16)35-9-8-18(37)33-29(35)39)49-50(40,41)46-11-17-20-23(45-14-44-20)28(48-17)36-13-32-19-24(30-12-31-25(19)36)34-26(38)15-6-4-3-5-7-15/h3-9,12-13,16-17,20-23,27-28H,10-11,14H2,1-2H3,(H,40,41)(H,33,37,39)(H,30,31,34,38)/t16-,17-,20-,21-,22-,23-,27-,28-/m1/s1

> <PUBCHEM_IUPAC_INCHIKEY>
DIUZYNILRMEEQA-WUJRABTMSA-N

> <PUBCHEM_XLOGP3_AA>
-1.9

> <PUBCHEM_EXACT_MASS>
717.17957110

> <PUBCHEM_MOLECULAR_FORMULA>
C29H32N7O13P

> <PUBCHEM_MOLECULAR_WEIGHT>
717.6

> <PUBCHEM_OPENEYE_CAN_SMILES>
COCC1C(C(C(O1)N2C=CC(=O)NC2=O)OC)OP(=O)(O)OCC3C4C(C(O3)N5C=NC6=C(N=CN=C65)NC(=O)C7=CC=CC=C7)OCO4

> <PUBCHEM_OPENEYE_ISO_SMILES>
COC[C@@H]1[C@H]([C@H]([C@@H](O1)N2C=CC(=O)NC2=O)OC)OP(=O)(O)OC[C@@H]3[C@@H]4[C@H]([C@@H](O3)N5C=NC6=C(N=CN=C65)NC(=O)C7=CC=CC=C7)OCO4

> <PUBCHEM_CACTVS_TPSA>
233

> <PUBCHEM_MONOISOTOPIC_WEIGHT>
717.17957110

> <PUBCHEM_TOTAL_CHARGE>
0

> <PUBCHEM_HEAVY_ATOM_COUNT>
50

> <PUBCHEM_ATOM_DEF_STEREO_COUNT>
8

> <PUBCHEM_ATOM_UDEF_STEREO_COUNT>
0

> <PUBCHEM_BOND_DEF_STEREO_COUNT>
0

> <PUBCHEM_BOND_UDEF_STEREO_COUNT>
0

> <PUBCHEM_ISOTOPIC_ATOM_COUNT>
0

> <PUBCHEM_COMPONENT_COUNT>
1

> <PUBCHEM_CACTVS_TAUTO_COUNT>
-1

> <PUBCHEM_COORDINATE_TYPE>
1
5
255

> <PUBCHEM_BONDANNOTATIONS>
25  15  6
15  33  8
15  34  8
30  16  6
16  36  8
16  37  8
17  34  8
17  35  8
18  33  8
18  41  8
19  36  8
19  42  8
20  39  8
20  41  8
22  51  6
23  52  6
24  27  6
29  32  6
33  35  8
35  39  8
37  40  8
40  42  8
45  46  8
45  47  8
46  48  8
47  49  8
48  50  8
49  50  8
26  6  5
28  8  5

$$$$
