 
  -OEChem-10192103592D

 91 96  0     1  0  0  0  0  0999 V2000
   13.8428    0.3396    0.0000 O   0  0  0  0  0  0  0  0  0  0  0  0
   13.2048    3.3412    0.0000 O   0  0  0  0  0  0  0  0  0  0  0  0
    7.7331   -2.2537    0.0000 O   0  0  0  0  0  0  0  0  0  0  0  0
    5.1350    0.2463    0.0000 O   0  0  0  0  0  0  0  0  0  0  0  0
    6.0010   -1.2537    0.0000 O   0  0  0  0  0  0  0  0  0  0  0  0
    9.4651   -1.2537    0.0000 O   0  0  0  0  0  0  0  0  0  0  0  0
    9.4651    0.7463    0.0000 O   0  0  0  0  0  0  0  0  0  0  0  0
    9.4651   -2.2537    0.0000 O   0  0  0  0  0  0  0  0  0  0  0  0
   17.5774    2.9437    0.0000 O   0  0  0  0  0  0  0  0  0  0  0  0
    6.0010   -4.2537    0.0000 O   0  0  0  0  0  0  0  0  0  0  0  0
    7.7331   -5.2537    0.0000 O   0  0  0  0  0  0  0  0  0  0  0  0
    9.4651   -4.2537    0.0000 O   0  0  0  0  0  0  0  0  0  0  0  0
    4.2690   -2.2537    0.0000 O   0  0  0  0  0  0  0  0  0  0  0  0
    2.5369   -1.2537    0.0000 O   0  0  0  0  0  0  0  0  0  0  0  0
    2.5369    0.7463    0.0000 O   0  0  0  0  0  0  0  0  0  0  0  0
   17.5739    4.9437    0.0000 O   0  0  0  0  0  0  0  0  0  0  0  0
    3.4030    2.2463    0.0000 O   0  0  0  0  0  0  0  0  0  0  0  0
   13.0338    1.7409    0.0000 C   0  0  1  0  0  0  0  0  0  0  0  0
   14.0119    1.9488    0.0000 C   0  0  1  0  0  0  0  0  0  0  0  0
   12.9292    0.7463    0.0000 C   0  0  1  0  0  0  0  0  0  0  0  0
   14.1133    2.9377    0.0000 C   0  0  1  0  0  0  0  0  0  0  0  0
   14.5119    1.0828    0.0000 C   0  0  0  0  0  0  0  0  0  0  0  0
   12.5390    2.6030    0.0000 C   0  0  0  0  0  0  0  0  0  0  0  0
   12.0632    0.2463    0.0000 C   0  0  0  0  0  0  0  0  0  0  0  0
   14.9784    3.4392    0.0000 C   0  0  0  0  0  0  0  0  0  0  0  0
   11.1972    0.7463    0.0000 C   0  0  0  0  0  0  0  0  0  0  0  0
   12.0632   -0.7537    0.0000 C   0  0  0  0  0  0  0  0  0  0  0  0
   15.8453    2.9407    0.0000 C   0  0  0  0  0  0  0  0  0  0  0  0
   14.9767    4.4392    0.0000 C   0  0  0  0  0  0  0  0  0  0  0  0
   10.3312    0.2463    0.0000 C   0  0  0  0  0  0  0  0  0  0  0  0
   11.1972   -1.2537    0.0000 C   0  0  0  0  0  0  0  0  0  0  0  0
   16.7105    3.4422    0.0000 C   0  0  0  0  0  0  0  0  0  0  0  0
   15.8418    4.9407    0.0000 C   0  0  0  0  0  0  0  0  0  0  0  0
    6.8671   -2.7537    0.0000 C   0  0  1  0  0  0  0  0  0  0  0  0
    6.8671   -3.7537    0.0000 C   0  0  2  0  0  0  0  0  0  0  0  0
   10.3312   -0.7537    0.0000 C   0  0  0  0  0  0  0  0  0  0  0  0
    7.7331   -4.2537    0.0000 C   0  0  1  0  0  0  0  0  0  0  0  0
    8.5991   -3.7537    0.0000 C   0  0  2  0  0  0  0  0  0  0  0  0
    4.2690   -1.2537    0.0000 C   0  0  2  0  0  0  0  0  0  0  0  0
    3.4030   -0.7537    0.0000 C   0  0  2  0  0  0  0  0  0  0  0  0
    5.1350   -0.7537    0.0000 C   0  0  1  0  0  0  0  0  0  0  0  0
   16.7087    4.4422    0.0000 C   0  0  0  0  0  0  0  0  0  0  0  0
    3.4030    0.2463    0.0000 C   0  0  1  0  0  0  0  0  0  0  0  0
    8.5991   -2.7537    0.0000 C   0  0  1  0  0  0  0  0  0  0  0  0
    4.2690    0.7463    0.0000 C   0  0  1  0  0  0  0  0  0  0  0  0
    6.0010   -2.2537    0.0000 C   0  0  0  0  0  0  0  0  0  0  0  0
    4.2690    1.7463    0.0000 C   0  0  0  0  0  0  0  0  0  0  0  0
    9.4651    1.7463    0.0000 C   0  0  0  0  0  0  0  0  0  0  0  0
   18.4425    3.4452    0.0000 C   0  0  0  0  0  0  0  0  0  0  0  0
   12.2021    1.5652    0.0000 H   0  0  0  0  0  0  0  0  0  0  0  0
   14.8431    2.1266    0.0000 H   0  0  0  0  0  0  0  0  0  0  0  0
   12.9617    0.1272    0.0000 H   0  0  0  0  0  0  0  0  0  0  0  0
   14.0800    3.5568    0.0000 H   0  0  0  0  0  0  0  0  0  0  0  0
   14.9268    0.6220    0.0000 H   0  0  0  0  0  0  0  0  0  0  0  0
   15.0135    1.4472    0.0000 H   0  0  0  0  0  0  0  0  0  0  0  0
   12.1248    3.0644    0.0000 H   0  0  0  0  0  0  0  0  0  0  0  0
   12.0366    2.2396    0.0000 H   0  0  0  0  0  0  0  0  0  0  0  0
   11.1972    1.3663    0.0000 H   0  0  0  0  0  0  0  0  0  0  0  0
   12.6002   -1.0637    0.0000 H   0  0  0  0  0  0  0  0  0  0  0  0
   15.8464    2.3207    0.0000 H   0  0  0  0  0  0  0  0  0  0  0  0
   14.4392    4.7482    0.0000 H   0  0  0  0  0  0  0  0  0  0  0  0
   11.1972   -1.8737    0.0000 H   0  0  0  0  0  0  0  0  0  0  0  0
    6.8671   -2.1337    0.0000 H   0  0  0  0  0  0  0  0  0  0  0  0
   15.8408    5.5607    0.0000 H   0  0  0  0  0  0  0  0  0  0  0  0
    6.8671   -4.3737    0.0000 H   0  0  0  0  0  0  0  0  0  0  0  0
    7.1962   -4.5637    0.0000 H   0  0  0  0  0  0  0  0  0  0  0  0
    8.5991   -4.3737    0.0000 H   0  0  0  0  0  0  0  0  0  0  0  0
    3.7320   -1.5637    0.0000 H   0  0  0  0  0  0  0  0  0  0  0  0
    2.8660   -0.4437    0.0000 H   0  0  0  0  0  0  0  0  0  0  0  0
    5.1350   -1.3737    0.0000 H   0  0  0  0  0  0  0  0  0  0  0  0
    3.4030    0.8663    0.0000 H   0  0  0  0  0  0  0  0  0  0  0  0
    8.5991   -2.1337    0.0000 H   0  0  0  0  0  0  0  0  0  0  0  0
    4.8059    1.0563    0.0000 H   0  0  0  0  0  0  0  0  0  0  0  0
    5.3905   -2.1460    0.0000 H   0  0  0  0  0  0  0  0  0  0  0  0
    5.7890   -2.8363    0.0000 H   0  0  0  0  0  0  0  0  0  0  0  0
    4.8796    1.6387    0.0000 H   0  0  0  0  0  0  0  0  0  0  0  0
    4.4810    2.3290    0.0000 H   0  0  0  0  0  0  0  0  0  0  0  0
    5.4641   -3.9437    0.0000 H   0  0  0  0  0  0  0  0  0  0  0  0
    7.1962   -5.5637    0.0000 H   0  0  0  0  0  0  0  0  0  0  0  0
   10.0021   -3.9437    0.0000 H   0  0  0  0  0  0  0  0  0  0  0  0
    3.7320   -2.5637    0.0000 H   0  0  0  0  0  0  0  0  0  0  0  0
    2.0000   -0.9437    0.0000 H   0  0  0  0  0  0  0  0  0  0  0  0
    2.0000    0.4363    0.0000 H   0  0  0  0  0  0  0  0  0  0  0  0
   17.5728    5.5637    0.0000 H   0  0  0  0  0  0  0  0  0  0  0  0
   10.0851    1.7463    0.0000 H   0  0  0  0  0  0  0  0  0  0  0  0
    9.4651    2.3663    0.0000 H   0  0  0  0  0  0  0  0  0  0  0  0
    8.8451    1.7463    0.0000 H   0  0  0  0  0  0  0  0  0  0  0  0
   18.7534    2.9088    0.0000 H   0  0  0  0  0  0  0  0  0  0  0  0
   18.9789    3.7561    0.0000 H   0  0  0  0  0  0  0  0  0  0  0  0
   18.1316    3.9816    0.0000 H   0  0  0  0  0  0  0  0  0  0  0  0
    3.4030    2.8663    0.0000 H   0  0  0  0  0  0  0  0  0  0  0  0
  1 20  1  0  0  0  0
  1 22  1  0  0  0  0
  2 21  1  0  0  0  0
  2 23  1  0  0  0  0
  3 34  1  0  0  0  0
  3 44  1  0  0  0  0
  4 41  1  0  0  0  0
  4 45  1  0  0  0  0
 41  5  1  1  0  0  0
  5 46  1  0  0  0  0
  6  8  1  0  0  0  0
  6 36  1  0  0  0  0
  7 30  1  0  0  0  0
  7 48  1  0  0  0  0
 44  8  1  1  0  0  0
  9 32  1  0  0  0  0
  9 49  1  0  0  0  0
 35 10  1  6  0  0  0
 10 78  1  0  0  0  0
 37 11  1  1  0  0  0
 11 79  1  0  0  0  0
 38 12  1  6  0  0  0
 12 80  1  0  0  0  0
 39 13  1  6  0  0  0
 13 81  1  0  0  0  0
 40 14  1  1  0  0  0
 14 82  1  0  0  0  0
 43 15  1  6  0  0  0
 15 83  1  0  0  0  0
 16 42  1  0  0  0  0
 16 84  1  0  0  0  0
 17 47  1  0  0  0  0
 17 91  1  0  0  0  0
 18 19  1  0  0  0  0
 18 20  1  0  0  0  0
 18 23  1  0  0  0  0
 18 50  1  6  0  0  0
 19 21  1  0  0  0  0
 19 22  1  0  0  0  0
 19 51  1  6  0  0  0
 20 24  1  6  0  0  0
 20 52  1  0  0  0  0
 21 25  1  6  0  0  0
 21 53  1  0  0  0  0
 22 54  1  0  0  0  0
 22 55  1  0  0  0  0
 23 56  1  0  0  0  0
 23 57  1  0  0  0  0
 24 26  2  0  0  0  0
 24 27  1  0  0  0  0
 25 28  2  0  0  0  0
 25 29  1  0  0  0  0
 26 30  1  0  0  0  0
 26 58  1  0  0  0  0
 27 31  2  0  0  0  0
 27 59  1  0  0  0  0
 28 32  1  0  0  0  0
 28 60  1  0  0  0  0
 29 33  2  0  0  0  0
 29 61  1  0  0  0  0
 30 36  2  0  0  0  0
 31 36  1  0  0  0  0
 31 62  1  0  0  0  0
 32 42  2  0  0  0  0
 33 42  1  0  0  0  0
 33 64  1  0  0  0  0
 34 35  1  0  0  0  0
 34 46  1  1  0  0  0
 34 63  1  0  0  0  0
 35 37  1  0  0  0  0
 35 65  1  0  0  0  0
 37 38  1  0  0  0  0
 37 66  1  0  0  0  0
 38 44  1  0  0  0  0
 38 67  1  0  0  0  0
 39 40  1  0  0  0  0
 39 41  1  0  0  0  0
 39 68  1  0  0  0  0
 40 43  1  0  0  0  0
 40 69  1  0  0  0  0
 41 70  1  0  0  0  0
 43 45  1  0  0  0  0
 43 71  1  0  0  0  0
 44 72  1  0  0  0  0
 45 47  1  1  0  0  0
 45 73  1  0  0  0  0
 46 74  1  0  0  0  0
 46 75  1  0  0  0  0
 47 76  1  0  0  0  0
 47 77  1  0  0  0  0
 48 85  1  0  0  0  0
 48 86  1  0  0  0  0
 48 87  1  0  0  0  0
 49 88  1  0  0  0  0
 49 89  1  0  0  0  0
 49 90  1  0  0  0  0
M  END
> <PUBCHEM_COMPOUND_CID>
101673617

> <PUBCHEM_COMPOUND_CANONICALIZED>
1

> <PUBCHEM_CACTVS_COMPLEXITY>
1040

> <PUBCHEM_CACTVS_HBOND_ACCEPTOR>
17

> <PUBCHEM_CACTVS_HBOND_DONOR>
8

> <PUBCHEM_CACTVS_ROTATABLE_BOND>
11

> <PUBCHEM_CACTVS_SUBSKEYS>
AAADcfB8PgAAAAAAAAAAAAAAAAAAASJAAAA0aIEAAAASAAABQAAAGgAADAAADRSwmAMyDoAABgCAAiBCAAACCAAgIAAIiAAGiIgdNiKGMRqicCMlwBEPuAfA4PwOoAABAAAAQABAAAIAAACAAAAAAAAAAA==

> <PUBCHEM_IUPAC_OPENEYE_NAME>
(2R,3R,4S,5S,6R)-2-[[(2R,3S,4S,5R,6S)-6-[4-[(3S,3aR,6S,6aR)-3-(4-hydroxy-3-methoxy-phenyl)-1,3,3a,4,6,6a-hexahydrofuro[3,4-c]furan-6-yl]-2-methoxy-phenyl]peroxy-3,4,5-trihydroxy-tetrahydropyran-2-yl]methoxy]-6-(hydroxymethyl)tetrahydropyran-3,4,5-triol

> <PUBCHEM_IUPAC_CAS_NAME>
(2R,3R,4S,5S,6R)-2-[[(2R,3S,4S,5R,6S)-6-[4-[(3S,3aR,6S,6aR)-3-(4-hydroxy-3-methoxyphenyl)-1,3,3a,4,6,6a-hexahydrofuro[3,4-c]furan-6-yl]-2-methoxyphenyl]dioxy-3,4,5-trihydroxy-2-oxanyl]methoxy]-6-(hydroxymethyl)oxane-3,4,5-triol

> <PUBCHEM_IUPAC_NAME_MARKUP>
(2<I>R</I>,3<I>R</I>,4<I>S</I>,5<I>S</I>,6<I>R</I>)-2-[[(2<I>R</I>,3<I>S</I>,4<I>S</I>,5<I>R</I>,6<I>S</I>)-6-[4-[(3<I>S</I>,3<I>a</I><I>R</I>,6<I>S</I>,6<I>a</I><I>R</I>)-3-(4-hydroxy-3-methoxyphenyl)-1,3,3<I>a</I>,4,6,6<I>a</I>-hexahydrofuro[3,4-c]furan-6-yl]-2-methoxyphenyl]peroxy-3,4,5-trihydroxyoxan-2-yl]methoxy]-6-(hydroxymethyl)oxane-3,4,5-triol

> <PUBCHEM_IUPAC_NAME>
(2R,3R,4S,5S,6R)-2-[[(2R,3S,4S,5R,6S)-6-[4-[(3S,3aR,6S,6aR)-3-(4-hydroxy-3-methoxyphenyl)-1,3,3a,4,6,6a-hexahydrofuro[3,4-c]furan-6-yl]-2-methoxyphenyl]peroxy-3,4,5-trihydroxyoxan-2-yl]methoxy]-6-(hydroxymethyl)oxane-3,4,5-triol

> <PUBCHEM_IUPAC_SYSTEMATIC_NAME>
(2R,3R,4S,5S,6R)-2-[[(2R,3S,4S,5R,6S)-6-[4-[(3S,3aR,6S,6aR)-3-(3-methoxy-4-oxidanyl-phenyl)-1,3,3a,4,6,6a-hexahydrofuro[3,4-c]furan-6-yl]-2-methoxy-phenyl]peroxy-3,4,5-tris(oxidanyl)oxan-2-yl]methoxy]-6-(hydroxymethyl)oxane-3,4,5-triol

> <PUBCHEM_IUPAC_TRADITIONAL_NAME>
(2R,3R,4S,5S,6R)-2-[[(2R,3S,4S,5R,6S)-6-[4-[(3S,3aR,6S,6aR)-3-(4-hydroxy-3-methoxy-phenyl)-1,3,3a,4,6,6a-hexahydrofuro[3,4-c]furan-6-yl]-2-methoxy-phenyl]peroxy-3,4,5-trihydroxy-tetrahydropyran-2-yl]methoxy]-6-methylol-tetrahydropyran-3,4,5-triol

> <PUBCHEM_IUPAC_INCHI>
InChI=1S/C32H42O17/c1-41-19-7-13(3-5-17(19)34)29-15-10-44-30(16(15)11-43-29)14-4-6-18(20(8-14)42-2)48-49-32-28(40)26(38)24(36)22(47-32)12-45-31-27(39)25(37)23(35)21(9-33)46-31/h3-8,15-16,21-40H,9-12H2,1-2H3/t15-,16-,21+,22+,23+,24+,25-,26-,27+,28+,29+,30+,31+,32-/m0/s1

> <PUBCHEM_IUPAC_INCHIKEY>
AQJMXSZBEJQYBI-CJJPAHFVSA-N

> <PUBCHEM_XLOGP3_AA>
-1.6

> <PUBCHEM_EXACT_MASS>
698.24219987

> <PUBCHEM_MOLECULAR_FORMULA>
C32H42O17

> <PUBCHEM_MOLECULAR_WEIGHT>
698.7

> <PUBCHEM_OPENEYE_CAN_SMILES>
COC1=C(C=CC(=C1)C2C3COC(C3CO2)C4=CC(=C(C=C4)OOC5C(C(C(C(O5)COC6C(C(C(C(O6)CO)O)O)O)O)O)O)OC)O

> <PUBCHEM_OPENEYE_ISO_SMILES>
COC1=C(C=CC(=C1)[C@@H]2[C@H]3CO[C@@H]([C@H]3CO2)C4=CC(=C(C=C4)OO[C@H]5[C@@H]([C@H]([C@@H]([C@H](O5)CO[C@H]6[C@@H]([C@H]([C@@H]([C@H](O6)CO)O)O)O)O)O)O)OC)O

> <PUBCHEM_CACTVS_TPSA>
245

> <PUBCHEM_MONOISOTOPIC_WEIGHT>
698.24219987

> <PUBCHEM_TOTAL_CHARGE>
0

> <PUBCHEM_HEAVY_ATOM_COUNT>
49

> <PUBCHEM_ATOM_DEF_STEREO_COUNT>
14

> <PUBCHEM_ATOM_UDEF_STEREO_COUNT>
0

> <PUBCHEM_BOND_DEF_STEREO_COUNT>
0

> <PUBCHEM_BOND_UDEF_STEREO_COUNT>
0

> <PUBCHEM_ISOTOPIC_ATOM_COUNT>
0

> <PUBCHEM_COMPONENT_COUNT>
1

> <PUBCHEM_CACTVS_TAUTO_COUNT>
-1

> <PUBCHEM_COORDINATE_TYPE>
1
5
255

> <PUBCHEM_BONDANNOTATIONS>
35  10  6
37  11  5
38  12  6
39  13  6
40  14  5
43  15  6
18  50  6
19  51  6
20  24  6
21  25  6
24  26  8
24  27  8
25  28  8
25  29  8
26  30  8
27  31  8
28  32  8
29  33  8
30  36  8
31  36  8
32  42  8
33  42  8
34  46  5
45  47  5
41  5  5
44  8  5

$$$$
