 
  -OEChem-10192103562D

 78 82  0     1  0  0  0  0  0999 V2000
   12.9263   -0.6739    0.0000 O   0  0  0  0  0  0  0  0  0  0  0  0
    4.2690   -0.5738    0.0000 O   0  0  0  0  0  0  0  0  0  0  0  0
   12.8570   -3.6731    0.0000 O   0  0  0  0  0  0  0  0  0  0  0  0
    4.2690   -3.5738    0.0000 O   0  0  0  0  0  0  0  0  0  0  0  0
   14.6117   -2.7134    0.0000 O   0  0  0  0  0  0  0  0  0  0  0  0
    2.5369   -2.5738    0.0000 O   0  0  0  0  0  0  0  0  0  0  0  0
   11.1485   -2.6333    0.0000 O   0  0  0  0  0  0  0  0  0  0  0  0
    6.0010   -2.5738    0.0000 O   0  0  0  0  0  0  0  0  0  0  0  0
   15.5121   -1.2338    0.0000 O   0  0  0  0  0  0  0  0  0  0  0  0
    2.5369    0.4262    0.0000 O   0  0  0  0  0  0  0  0  0  0  0  0
   12.0952    0.8457    0.0000 O   0  0  0  0  0  0  0  0  0  0  0  0
    5.1350    0.9262    0.0000 O   0  0  0  0  0  0  0  0  0  0  0  0
   11.1947   -0.6338    0.0000 N   0  0  0  0  0  0  0  0  0  0  0  0
    6.0010   -0.5738    0.0000 N   0  0  0  0  0  0  0  0  0  0  0  0
   10.3636    0.8858    0.0000 N   0  0  0  0  0  0  0  0  0  0  0  0
    6.8671    0.9262    0.0000 N   0  0  0  0  0  0  0  0  0  0  0  0
   12.8801   -2.6734    0.0000 C   0  0  1  0  0  0  0  0  0  0  0  0
    4.2690   -2.5738    0.0000 C   0  0  1  0  0  0  0  0  0  0  0  0
   13.7574   -2.1935    0.0000 C   0  0  1  0  0  0  0  0  0  0  0  0
    3.4030   -2.0738    0.0000 C   0  0  1  0  0  0  0  0  0  0  0  0
   12.0258   -2.1535    0.0000 C   0  0  2  0  0  0  0  0  0  0  0  0
    5.1350   -2.0738    0.0000 C   0  0  2  0  0  0  0  0  0  0  0  0
   13.7806   -1.1938    0.0000 C   0  0  1  0  0  0  0  0  0  0  0  0
    3.4030   -1.0738    0.0000 C   0  0  1  0  0  0  0  0  0  0  0  0
   12.0490   -1.1537    0.0000 C   0  0  1  0  0  0  0  0  0  0  0  0
    5.1350   -1.0738    0.0000 C   0  0  1  0  0  0  0  0  0  0  0  0
   14.6579   -0.7139    0.0000 C   0  0  0  0  0  0  0  0  0  0  0  0
    2.5369   -0.5738    0.0000 C   0  0  0  0  0  0  0  0  0  0  0  0
   11.2179    0.3659    0.0000 C   0  0  0  0  0  0  0  0  0  0  0  0
    6.0010    0.4262    0.0000 C   0  0  0  0  0  0  0  0  0  0  0  0
   10.3868    1.8855    0.0000 C   0  0  0  0  0  0  0  0  0  0  0  0
    6.8671    1.9262    0.0000 C   0  0  0  0  0  0  0  0  0  0  0  0
    9.4991    2.4305    0.0000 C   0  0  0  0  0  0  0  0  0  0  0  0
    7.7671    2.4505    0.0000 C   0  0  0  0  0  0  0  0  0  0  0  0
    9.5106    3.4304    0.0000 C   0  0  0  0  0  0  0  0  0  0  0  0
    7.7787    3.4504    0.0000 C   0  0  0  0  0  0  0  0  0  0  0  0
    8.6273    1.9405    0.0000 C   0  0  0  0  0  0  0  0  0  0  0  0
    8.6504    3.9404    0.0000 C   0  0  0  0  0  0  0  0  0  0  0  0
   11.2987    2.3889    0.0000 C   0  0  0  0  0  0  0  0  0  0  0  0
    5.9670    2.4505    0.0000 C   0  0  0  0  0  0  0  0  0  0  0  0
   10.4107    3.9547    0.0000 C   0  0  0  0  0  0  0  0  0  0  0  0
    6.8910    3.9954    0.0000 C   0  0  0  0  0  0  0  0  0  0  0  0
   11.3108    3.4304    0.0000 C   0  0  0  0  0  0  0  0  0  0  0  0
    5.9790    3.4921    0.0000 C   0  0  0  0  0  0  0  0  0  0  0  0
   13.4097   -2.9957    0.0000 H   0  0  0  0  0  0  0  0  0  0  0  0
    3.7320   -2.8838    0.0000 H   0  0  0  0  0  0  0  0  0  0  0  0
   14.3014   -1.8960    0.0000 H   0  0  0  0  0  0  0  0  0  0  0  0
    3.4030   -2.6938    0.0000 H   0  0  0  0  0  0  0  0  0  0  0  0
   11.4962   -1.8311    0.0000 H   0  0  0  0  0  0  0  0  0  0  0  0
    5.1350   -2.6938    0.0000 H   0  0  0  0  0  0  0  0  0  0  0  0
   13.7949   -0.5739    0.0000 H   0  0  0  0  0  0  0  0  0  0  0  0
    3.4030   -0.4538    0.0000 H   0  0  0  0  0  0  0  0  0  0  0  0
   12.0633   -0.5339    0.0000 H   0  0  0  0  0  0  0  0  0  0  0  0
    5.1350   -0.4538    0.0000 H   0  0  0  0  0  0  0  0  0  0  0  0
   15.0673   -0.2483    0.0000 H   0  0  0  0  0  0  0  0  0  0  0  0
   14.2705   -0.2299    0.0000 H   0  0  0  0  0  0  0  0  0  0  0  0
    1.9264   -0.4661    0.0000 H   0  0  0  0  0  0  0  0  0  0  0  0
    2.3249   -1.1564    0.0000 H   0  0  0  0  0  0  0  0  0  0  0  0
   10.6508   -0.9313    0.0000 H   0  0  0  0  0  0  0  0  0  0  0  0
    6.5380   -0.8838    0.0000 H   0  0  0  0  0  0  0  0  0  0  0  0
   13.3866   -3.9954    0.0000 H   0  0  0  0  0  0  0  0  0  0  0  0
    3.7320   -3.8838    0.0000 H   0  0  0  0  0  0  0  0  0  0  0  0
   14.5973   -3.3332    0.0000 H   0  0  0  0  0  0  0  0  0  0  0  0
    2.0000   -2.2638    0.0000 H   0  0  0  0  0  0  0  0  0  0  0  0
   11.1342   -3.2531    0.0000 H   0  0  0  0  0  0  0  0  0  0  0  0
    6.0010   -3.1938    0.0000 H   0  0  0  0  0  0  0  0  0  0  0  0
   16.0561   -0.9363    0.0000 H   0  0  0  0  0  0  0  0  0  0  0  0
    2.0000    0.7362    0.0000 H   0  0  0  0  0  0  0  0  0  0  0  0
    9.8197    0.5883    0.0000 H   0  0  0  0  0  0  0  0  0  0  0  0
    7.4040    0.6162    0.0000 H   0  0  0  0  0  0  0  0  0  0  0  0
    8.6201    1.3206    0.0000 H   0  0  0  0  0  0  0  0  0  0  0  0
    8.6576    4.5604    0.0000 H   0  0  0  0  0  0  0  0  0  0  0  0
   11.8308    2.0706    0.0000 H   0  0  0  0  0  0  0  0  0  0  0  0
    5.4277    2.1447    0.0000 H   0  0  0  0  0  0  0  0  0  0  0  0
   10.4107    4.5747    0.0000 H   0  0  0  0  0  0  0  0  0  0  0  0
    6.9053    4.6152    0.0000 H   0  0  0  0  0  0  0  0  0  0  0  0
   11.8501    3.7363    0.0000 H   0  0  0  0  0  0  0  0  0  0  0  0
    5.4470    3.8103    0.0000 H   0  0  0  0  0  0  0  0  0  0  0  0
  1 23  1  0  0  0  0
  1 25  1  0  0  0  0
  2 24  1  0  0  0  0
  2 26  1  0  0  0  0
 17  3  1  6  0  0  0
  3 61  1  0  0  0  0
 18  4  1  1  0  0  0
  4 62  1  0  0  0  0
 19  5  1  1  0  0  0
  5 63  1  0  0  0  0
 20  6  1  6  0  0  0
  6 64  1  0  0  0  0
 21  7  1  1  0  0  0
  7 65  1  0  0  0  0
 22  8  1  6  0  0  0
  8 66  1  0  0  0  0
  9 27  1  0  0  0  0
  9 67  1  0  0  0  0
 10 28  1  0  0  0  0
 10 68  1  0  0  0  0
 11 29  2  0  0  0  0
 12 30  2  0  0  0  0
 25 13  1  6  0  0  0
 13 29  1  0  0  0  0
 13 59  1  0  0  0  0
 26 14  1  1  0  0  0
 14 30  1  0  0  0  0
 14 60  1  0  0  0  0
 15 29  1  0  0  0  0
 15 31  1  0  0  0  0
 15 69  1  0  0  0  0
 16 30  1  0  0  0  0
 16 32  1  0  0  0  0
 16 70  1  0  0  0  0
 17 19  1  0  0  0  0
 17 21  1  0  0  0  0
 17 45  1  0  0  0  0
 18 20  1  0  0  0  0
 18 22  1  0  0  0  0
 18 46  1  0  0  0  0
 19 23  1  0  0  0  0
 19 47  1  0  0  0  0
 20 24  1  0  0  0  0
 20 48  1  0  0  0  0
 21 25  1  0  0  0  0
 21 49  1  0  0  0  0
 22 26  1  0  0  0  0
 22 50  1  0  0  0  0
 23 27  1  6  0  0  0
 23 51  1  0  0  0  0
 24 28  1  1  0  0  0
 24 52  1  0  0  0  0
 25 53  1  0  0  0  0
 26 54  1  0  0  0  0
 27 55  1  0  0  0  0
 27 56  1  0  0  0  0
 28 57  1  0  0  0  0
 28 58  1  0  0  0  0
 31 33  1  0  0  0  0
 31 39  2  0  0  0  0
 32 34  1  0  0  0  0
 32 40  2  0  0  0  0
 33 35  2  0  0  0  0
 33 37  1  0  0  0  0
 34 36  1  0  0  0  0
 34 37  2  0  0  0  0
 35 38  1  0  0  0  0
 35 41  1  0  0  0  0
 36 38  2  0  0  0  0
 36 42  1  0  0  0  0
 37 71  1  0  0  0  0
 38 72  1  0  0  0  0
 39 43  1  0  0  0  0
 39 73  1  0  0  0  0
 40 44  1  0  0  0  0
 40 74  1  0  0  0  0
 41 43  2  0  0  0  0
 41 75  1  0  0  0  0
 42 44  2  0  0  0  0
 42 76  1  0  0  0  0
 43 77  1  0  0  0  0
 44 78  1  0  0  0  0
M  END
> <PUBCHEM_COMPOUND_CID>
122213596

> <PUBCHEM_COMPOUND_CANONICALIZED>
1

> <PUBCHEM_CACTVS_COMPLEXITY>
922

> <PUBCHEM_CACTVS_HBOND_ACCEPTOR>
12

> <PUBCHEM_CACTVS_HBOND_DONOR>
12

> <PUBCHEM_CACTVS_ROTATABLE_BOND>
6

> <PUBCHEM_CACTVS_SUBSKEYS>
AAADcfB7vAAAAAAAAAAAAAAAAAAAAAAAAAA0aMECAAAAAADBVAAAHgAQCAAADBzhmAYxwMLABgCIAiRCUACCAAAhAgAIiIAIZImLMCLAkZGOYAhvlgJbyCfw8MYOwAACQAASAACAAASAACQAAAAAAAAAAA==

> <PUBCHEM_IUPAC_OPENEYE_NAME>
1-[(2R,3R,4S,5S,6R)-3,4,5-trihydroxy-6-(hydroxymethyl)tetrahydropyran-2-yl]-3-[8-[[(2R,3R,4S,5S,6R)-3,4,5-trihydroxy-6-(hydroxymethyl)tetrahydropyran-2-yl]carbamoylamino]-1-anthryl]urea

> <PUBCHEM_IUPAC_CAS_NAME>
1-[8-[[oxo-[[(2R,3R,4S,5S,6R)-3,4,5-trihydroxy-6-(hydroxymethyl)-2-oxanyl]amino]methyl]amino]-1-anthracenyl]-3-[(2R,3R,4S,5S,6R)-3,4,5-trihydroxy-6-(hydroxymethyl)-2-oxanyl]urea

> <PUBCHEM_IUPAC_NAME_MARKUP>
1-[(2<I>R</I>,3<I>R</I>,4<I>S</I>,5<I>S</I>,6<I>R</I>)-3,4,5-trihydroxy-6-(hydroxymethyl)oxan-2-yl]-3-[8-[[(2<I>R</I>,3<I>R</I>,4<I>S</I>,5<I>S</I>,6<I>R</I>)-3,4,5-trihydroxy-6-(hydroxymethyl)oxan-2-yl]carbamoylamino]anthracen-1-yl]urea

> <PUBCHEM_IUPAC_NAME>
1-[(2R,3R,4S,5S,6R)-3,4,5-trihydroxy-6-(hydroxymethyl)oxan-2-yl]-3-[8-[[(2R,3R,4S,5S,6R)-3,4,5-trihydroxy-6-(hydroxymethyl)oxan-2-yl]carbamoylamino]anthracen-1-yl]urea

> <PUBCHEM_IUPAC_SYSTEMATIC_NAME>
1-[(2R,3R,4S,5S,6R)-6-(hydroxymethyl)-3,4,5-tris(oxidanyl)oxan-2-yl]-3-[8-[[(2R,3R,4S,5S,6R)-6-(hydroxymethyl)-3,4,5-tris(oxidanyl)oxan-2-yl]carbamoylamino]anthracen-1-yl]urea

> <PUBCHEM_IUPAC_TRADITIONAL_NAME>
1-[(2R,3R,4S,5S,6R)-3,4,5-trihydroxy-6-methylol-tetrahydropyran-2-yl]-3-[8-[[(2R,3R,4S,5S,6R)-3,4,5-trihydroxy-6-methylol-tetrahydropyran-2-yl]carbamoylamino]-1-anthryl]urea

> <PUBCHEM_IUPAC_INCHI>
InChI=1S/C28H34N4O12/c33-9-17-19(35)21(37)23(39)25(43-17)31-27(41)29-15-5-1-3-11-7-12-4-2-6-16(14(12)8-13(11)15)30-28(42)32-26-24(40)22(38)20(36)18(10-34)44-26/h1-8,17-26,33-40H,9-10H2,(H2,29,31,41)(H2,30,32,42)/t17-,18-,19-,20-,21+,22+,23-,24-,25-,26-/m1/s1

> <PUBCHEM_IUPAC_INCHIKEY>
KKKUZYYUEBMSAZ-PCIRLDFKSA-N

> <PUBCHEM_XLOGP3_AA>
-1.8

> <PUBCHEM_EXACT_MASS>
618.21732253

> <PUBCHEM_MOLECULAR_FORMULA>
C28H34N4O12

> <PUBCHEM_MOLECULAR_WEIGHT>
618.6

> <PUBCHEM_OPENEYE_CAN_SMILES>
C1=CC2=CC3=C(C=C2C(=C1)NC(=O)NC4C(C(C(C(O4)CO)O)O)O)C(=CC=C3)NC(=O)NC5C(C(C(C(O5)CO)O)O)O

> <PUBCHEM_OPENEYE_ISO_SMILES>
C1=CC2=CC3=C(C=C2C(=C1)NC(=O)N[C@H]4[C@@H]([C@H]([C@@H]([C@H](O4)CO)O)O)O)C(=CC=C3)NC(=O)N[C@H]5[C@@H]([C@H]([C@@H]([C@H](O5)CO)O)O)O

> <PUBCHEM_CACTVS_TPSA>
263

> <PUBCHEM_MONOISOTOPIC_WEIGHT>
618.21732253

> <PUBCHEM_TOTAL_CHARGE>
0

> <PUBCHEM_HEAVY_ATOM_COUNT>
44

> <PUBCHEM_ATOM_DEF_STEREO_COUNT>
10

> <PUBCHEM_ATOM_UDEF_STEREO_COUNT>
0

> <PUBCHEM_BOND_DEF_STEREO_COUNT>
0

> <PUBCHEM_BOND_UDEF_STEREO_COUNT>
0

> <PUBCHEM_ISOTOPIC_ATOM_COUNT>
0

> <PUBCHEM_COMPONENT_COUNT>
1

> <PUBCHEM_CACTVS_TAUTO_COUNT>
-1

> <PUBCHEM_COORDINATE_TYPE>
1
5
255

> <PUBCHEM_BONDANNOTATIONS>
25  13  6
26  14  5
23  27  6
24  28  5
17  3  6
31  33  8
31  39  8
32  34  8
32  40  8
33  35  8
33  37  8
34  36  8
34  37  8
35  38  8
35  41  8
36  38  8
36  42  8
39  43  8
18  4  5
40  44  8
41  43  8
42  44  8
19  5  5
20  6  6
21  7  5
22  8  6

$$$$
