 
  -OEChem-10192104052D

 69 70  0     1  0  0  0  0  0999 V2000
    5.4641    0.4420    0.0000 O   0  0  0  0  0  0  0  0  0  0  0  0
    7.1962    0.4420    0.0000 O   0  0  0  0  0  0  0  0  0  0  0  0
    5.4641   -2.5580    0.0000 O   0  0  0  0  0  0  0  0  0  0  0  0
    3.7320   -1.5580    0.0000 O   0  0  0  0  0  0  0  0  0  0  0  0
    7.1962   -1.5580    0.0000 O   0  0  0  0  0  0  0  0  0  0  0  0
    8.1667    2.9365    0.0000 O   0  0  0  0  0  0  0  0  0  0  0  0
    3.7320    1.4420    0.0000 O   0  0  0  0  0  0  0  0  0  0  0  0
    9.1836    0.5571    0.0000 O   0  0  0  0  0  0  0  0  0  0  0  0
   10.6394    2.1739    0.0000 O   0  0  0  0  0  0  0  0  0  0  0  0
    9.5516    4.0580    0.0000 O   0  0  0  0  0  0  0  0  0  0  0  0
    3.7320   -2.5580    0.0000 O   0  0  0  0  0  0  0  0  0  0  0  0
    2.8660   -0.0580    0.0000 O   0  0  0  0  0  0  0  0  0  0  0  0
    8.0622   -0.0580    0.0000 O   0  0  0  0  0  0  0  0  0  0  0  0
    2.0000    1.4420    0.0000 O   0  0  0  0  0  0  0  0  0  0  0  0
   10.8778    0.9172    0.0000 O   0  0  0  0  0  0  0  0  0  0  0  0
   10.8204    3.8964    0.0000 O   0  0  0  0  0  0  0  0  0  0  0  0
    5.4641   -1.5580    0.0000 C   0  0  1  0  0  0  0  0  0  0  0  0
    4.5981   -1.0580    0.0000 C   0  0  1  0  0  0  0  0  0  0  0  0
    6.3301   -1.0580    0.0000 C   0  0  2  0  0  0  0  0  0  0  0  0
    4.5981   -0.0580    0.0000 C   0  0  1  0  0  0  0  0  0  0  0  0
    6.3301   -0.0580    0.0000 C   0  0  2  0  0  0  0  0  0  0  0  0
    8.0622    1.9420    0.0000 C   0  0  3  0  0  0  0  0  0  0  0  0
    3.7320    0.4420    0.0000 C   0  0  0  0  0  0  0  0  0  0  0  0
    7.1962    1.4420    0.0000 C   0  0  0  0  0  0  0  0  0  0  0  0
    8.9757    1.5353    0.0000 C   0  0  2  0  0  0  0  0  0  0  0  0
    9.6448    2.2784    0.0000 C   0  0  1  0  0  0  0  0  0  0  0  0
    9.1448    3.1444    0.0000 C   0  0  0  0  0  0  0  0  0  0  0  0
    4.5981   -3.0580    0.0000 C   0  0  0  0  0  0  0  0  0  0  0  0
    2.8660   -1.0580    0.0000 C   0  0  0  0  0  0  0  0  0  0  0  0
    8.0622   -1.0580    0.0000 C   0  0  0  0  0  0  0  0  0  0  0  0
    4.5981   -4.0580    0.0000 C   0  0  0  0  0  0  0  0  0  0  0  0
    2.0000   -1.5580    0.0000 C   0  0  0  0  0  0  0  0  0  0  0  0
    2.8660    1.9420    0.0000 C   0  0  0  0  0  0  0  0  0  0  0  0
    8.9282   -1.5580    0.0000 C   0  0  0  0  0  0  0  0  0  0  0  0
   10.1347    0.2481    0.0000 C   0  0  0  0  0  0  0  0  0  0  0  0
   11.2272    2.9829    0.0000 C   0  0  0  0  0  0  0  0  0  0  0  0
   10.3426   -0.7300    0.0000 C   0  0  0  0  0  0  0  0  0  0  0  0
    2.8660    2.9420    0.0000 C   0  0  0  0  0  0  0  0  0  0  0  0
   12.2217    2.8784    0.0000 C   0  0  0  0  0  0  0  0  0  0  0  0
    4.9272   -1.8680    0.0000 H   0  0  0  0  0  0  0  0  0  0  0  0
    4.5981   -1.6780    0.0000 H   0  0  0  0  0  0  0  0  0  0  0  0
    6.3301   -1.6780    0.0000 H   0  0  0  0  0  0  0  0  0  0  0  0
    4.5981    0.5620    0.0000 H   0  0  0  0  0  0  0  0  0  0  0  0
    6.3301    0.5620    0.0000 H   0  0  0  0  0  0  0  0  0  0  0  0
    7.5422    2.2797    0.0000 H   0  0  0  0  0  0  0  0  0  0  0  0
    3.1215    0.5497    0.0000 H   0  0  0  0  0  0  0  0  0  0  0  0
    3.5200   -0.1406    0.0000 H   0  0  0  0  0  0  0  0  0  0  0  0
    6.9841    2.0246    0.0000 H   0  0  0  0  0  0  0  0  0  0  0  0
    6.5856    1.3344    0.0000 H   0  0  0  0  0  0  0  0  0  0  0  0
    9.5746    1.3748    0.0000 H   0  0  0  0  0  0  0  0  0  0  0  0
    9.9825    2.7984    0.0000 H   0  0  0  0  0  0  0  0  0  0  0  0
    3.9781   -4.0580    0.0000 H   0  0  0  0  0  0  0  0  0  0  0  0
    4.5981   -4.6780    0.0000 H   0  0  0  0  0  0  0  0  0  0  0  0
    5.2181   -4.0580    0.0000 H   0  0  0  0  0  0  0  0  0  0  0  0
    1.6900   -1.0210    0.0000 H   0  0  0  0  0  0  0  0  0  0  0  0
    1.4631   -1.8680    0.0000 H   0  0  0  0  0  0  0  0  0  0  0  0
    2.3100   -2.0949    0.0000 H   0  0  0  0  0  0  0  0  0  0  0  0
    8.6182   -2.0949    0.0000 H   0  0  0  0  0  0  0  0  0  0  0  0
    9.4651   -1.8680    0.0000 H   0  0  0  0  0  0  0  0  0  0  0  0
    9.2382   -1.0210    0.0000 H   0  0  0  0  0  0  0  0  0  0  0  0
    9.7362   -0.8589    0.0000 H   0  0  0  0  0  0  0  0  0  0  0  0
   10.4715   -1.3365    0.0000 H   0  0  0  0  0  0  0  0  0  0  0  0
   10.9491   -0.6011    0.0000 H   0  0  0  0  0  0  0  0  0  0  0  0
    3.4860    2.9420    0.0000 H   0  0  0  0  0  0  0  0  0  0  0  0
    2.8660    3.5620    0.0000 H   0  0  0  0  0  0  0  0  0  0  0  0
    2.2460    2.9420    0.0000 H   0  0  0  0  0  0  0  0  0  0  0  0
   12.1569    2.2618    0.0000 H   0  0  0  0  0  0  0  0  0  0  0  0
   12.8383    2.8136    0.0000 H   0  0  0  0  0  0  0  0  0  0  0  0
   12.2865    3.4950    0.0000 H   0  0  0  0  0  0  0  0  0  0  0  0
  1 20  1  0  0  0  0
  1 21  1  0  0  0  0
 21  2  1  6  0  0  0
  2 24  1  0  0  0  0
 17  3  1  1  0  0  0
  3 28  1  0  0  0  0
 18  4  1  6  0  0  0
  4 29  1  0  0  0  0
 19  5  1  6  0  0  0
  5 30  1  0  0  0  0
  6 22  1  0  0  0  0
  6 27  1  0  0  0  0
  7 23  1  0  0  0  0
  7 33  1  0  0  0  0
 25  8  1  6  0  0  0
  8 35  1  0  0  0  0
 26  9  1  1  0  0  0
  9 36  1  0  0  0  0
 10 27  2  0  0  0  0
 11 28  2  0  0  0  0
 12 29  2  0  0  0  0
 13 30  2  0  0  0  0
 14 33  2  0  0  0  0
 15 35  2  0  0  0  0
 16 36  2  0  0  0  0
 17 18  1  0  0  0  0
 17 19  1  0  0  0  0
 17 40  1  0  0  0  0
 18 20  1  0  0  0  0
 18 41  1  0  0  0  0
 19 21  1  0  0  0  0
 19 42  1  0  0  0  0
 20 23  1  1  0  0  0
 20 43  1  0  0  0  0
 21 44  1  0  0  0  0
 22 24  1  0  0  0  0
 22 25  1  0  0  0  0
 22 45  1  0  0  0  0
 23 46  1  0  0  0  0
 23 47  1  0  0  0  0
 24 48  1  0  0  0  0
 24 49  1  0  0  0  0
 25 26  1  0  0  0  0
 25 50  1  0  0  0  0
 26 27  1  0  0  0  0
 26 51  1  0  0  0  0
 28 31  1  0  0  0  0
 29 32  1  0  0  0  0
 30 34  1  0  0  0  0
 31 52  1  0  0  0  0
 31 53  1  0  0  0  0
 31 54  1  0  0  0  0
 32 55  1  0  0  0  0
 32 56  1  0  0  0  0
 32 57  1  0  0  0  0
 33 38  1  0  0  0  0
 34 58  1  0  0  0  0
 34 59  1  0  0  0  0
 34 60  1  0  0  0  0
 35 37  1  0  0  0  0
 36 39  1  0  0  0  0
 37 61  1  0  0  0  0
 37 62  1  0  0  0  0
 37 63  1  0  0  0  0
 38 64  1  0  0  0  0
 38 65  1  0  0  0  0
 38 66  1  0  0  0  0
 39 67  1  0  0  0  0
 39 68  1  0  0  0  0
 39 69  1  0  0  0  0
M  END
> <PUBCHEM_COMPOUND_CID>
101839993

> <PUBCHEM_COMPOUND_CANONICALIZED>
1

> <PUBCHEM_CACTVS_COMPLEXITY>
975

> <PUBCHEM_CACTVS_HBOND_ACCEPTOR>
16

> <PUBCHEM_CACTVS_HBOND_DONOR>
0

> <PUBCHEM_CACTVS_ROTATABLE_BOND>
16

> <PUBCHEM_CACTVS_SUBSKEYS>
AAADceB4PgAAAAAAAAAAAAAAAAAAASAAAAAkAAAAAAAAAAAAAAAAGgAAAAAACBSwgAMCCAAABAAIAACQCAIAAAAAAAAAAAFAAAARABYAAAQiAAAFIAAGAAHKZAwAAAAAAAAAAAAAAAAAAAAAAAAAAAAAAA==

> <PUBCHEM_IUPAC_OPENEYE_NAME>
[(2R,3R,4S,5R,6S)-3,4,5-triacetoxy-6-[[(3R,4S)-3,4-diacetoxy-5-oxo-tetrahydrofuran-2-yl]methoxy]tetrahydropyran-2-yl]methyl acetate

> <PUBCHEM_IUPAC_CAS_NAME>
acetic acid [(2R,3R,4S,5R,6S)-3,4,5-triacetyloxy-6-[[(3R,4S)-3,4-diacetyloxy-5-oxo-2-oxolanyl]methoxy]-2-oxanyl]methyl ester

> <PUBCHEM_IUPAC_NAME_MARKUP>
[(2<I>R</I>,3<I>R</I>,4<I>S</I>,5<I>R</I>,6<I>S</I>)-3,4,5-triacetyloxy-6-[[(3<I>R</I>,4<I>S</I>)-3,4-diacetyloxy-5-oxooxolan-2-yl]methoxy]oxan-2-yl]methyl acetate

> <PUBCHEM_IUPAC_NAME>
[(2R,3R,4S,5R,6S)-3,4,5-triacetyloxy-6-[[(3R,4S)-3,4-diacetyloxy-5-oxooxolan-2-yl]methoxy]oxan-2-yl]methyl acetate

> <PUBCHEM_IUPAC_SYSTEMATIC_NAME>
[(2R,3R,4S,5R,6S)-3,4,5-triacetyloxy-6-[[(3R,4S)-3,4-diacetyloxy-5-oxidanylidene-oxolan-2-yl]methoxy]oxan-2-yl]methyl ethanoate

> <PUBCHEM_IUPAC_TRADITIONAL_NAME>
acetic acid [(2R,3R,4S,5R,6S)-3,4,5-triacetoxy-6-[[(3R,4S)-3,4-diacetoxy-5-keto-tetrahydrofuran-2-yl]methoxy]tetrahydropyran-2-yl]methyl ester

> <PUBCHEM_IUPAC_INCHI>
InChI=1S/C23H30O16/c1-9(24)31-7-16-17(33-10(2)25)19(35-12(4)27)21(37-14(6)29)23(39-16)32-8-15-18(34-11(3)26)20(22(30)38-15)36-13(5)28/h15-21,23H,7-8H2,1-6H3/t15?,16-,17-,18-,19+,20+,21-,23+/m1/s1

> <PUBCHEM_IUPAC_INCHIKEY>
IQSGDEWKOLUYNM-ZBEUJTQWSA-N

> <PUBCHEM_XLOGP3_AA>
-0.7

> <PUBCHEM_EXACT_MASS>
562.15338487

> <PUBCHEM_MOLECULAR_FORMULA>
C23H30O16

> <PUBCHEM_MOLECULAR_WEIGHT>
562.5

> <PUBCHEM_OPENEYE_CAN_SMILES>
CC(=O)OCC1C(C(C(C(O1)OCC2C(C(C(=O)O2)OC(=O)C)OC(=O)C)OC(=O)C)OC(=O)C)OC(=O)C

> <PUBCHEM_OPENEYE_ISO_SMILES>
CC(=O)OC[C@@H]1[C@H]([C@@H]([C@H]([C@H](O1)OCC2[C@H]([C@@H](C(=O)O2)OC(=O)C)OC(=O)C)OC(=O)C)OC(=O)C)OC(=O)C

> <PUBCHEM_CACTVS_TPSA>
203

> <PUBCHEM_MONOISOTOPIC_WEIGHT>
562.15338487

> <PUBCHEM_TOTAL_CHARGE>
0

> <PUBCHEM_HEAVY_ATOM_COUNT>
39

> <PUBCHEM_ATOM_DEF_STEREO_COUNT>
7

> <PUBCHEM_ATOM_UDEF_STEREO_COUNT>
1

> <PUBCHEM_BOND_DEF_STEREO_COUNT>
0

> <PUBCHEM_BOND_UDEF_STEREO_COUNT>
0

> <PUBCHEM_ISOTOPIC_ATOM_COUNT>
0

> <PUBCHEM_COMPONENT_COUNT>
1

> <PUBCHEM_CACTVS_TAUTO_COUNT>
-1

> <PUBCHEM_COORDINATE_TYPE>
1
5
255

> <PUBCHEM_BONDANNOTATIONS>
21  2  6
20  23  5
22  24  3
17  3  5
18  4  6
19  5  6
25  8  6
26  9  5

$$$$
