 
  -OEChem-10192103502D

 29 29  0     1  0  0  0  0  0999 V2000
    4.2601   -2.1749    0.0000 O   0  0  0  0  0  0  0  0  0  0  0  0
    5.5202   -0.9148    0.0000 O   0  0  0  0  0  0  0  0  0  0  0  0
    2.8940    1.8639    0.0000 O   0  0  0  0  0  0  0  0  0  0  0  0
    2.6723   -2.9839    0.0000 O   0  0  0  0  0  0  0  0  0  0  0  0
    2.0280    0.3639    0.0000 O   0  0  0  0  0  0  0  0  0  0  0  0
    5.4921    2.3639    0.0000 O   0  0  0  0  0  0  0  0  0  0  0  0
    3.7601    2.3639    0.0000 O   0  0  0  0  0  0  0  0  0  0  0  0
    3.7601   -0.6361    0.0000 C   0  0  3  0  0  0  0  0  0  0  0  0
    3.7601    0.3639    0.0000 C   0  0  3  0  0  0  0  0  0  0  0  0
    2.9511   -1.2239    0.0000 C   0  0  3  0  0  0  0  0  0  0  0  0
    4.6261    0.8639    0.0000 C   0  0  3  0  0  0  0  0  0  0  0  0
    4.5691   -1.2239    0.0000 C   0  0  0  0  0  0  0  0  0  0  0  0
    3.2601   -2.1749    0.0000 C   0  0  0  0  0  0  0  0  0  0  0  0
    2.0000   -0.9148    0.0000 C   0  0  0  0  0  0  0  0  0  0  0  0
    2.8940    0.8639    0.0000 C   0  0  0  0  0  0  0  0  0  0  0  0
    5.4921    0.3639    0.0000 C   0  0  0  0  0  0  0  0  0  0  0  0
    4.6261    1.8639    0.0000 C   0  0  0  0  0  0  0  0  0  0  0  0
    4.3125   -0.3546    0.0000 H   0  0  0  0  0  0  0  0  0  0  0  0
    3.2231    0.0539    0.0000 H   0  0  0  0  0  0  0  0  0  0  0  0
    2.8541   -0.6115    0.0000 H   0  0  0  0  0  0  0  0  0  0  0  0
    5.1630    1.1739    0.0000 H   0  0  0  0  0  0  0  0  0  0  0  0
    2.1916   -0.3252    0.0000 H   0  0  0  0  0  0  0  0  0  0  0  0
    1.4103   -0.7232    0.0000 H   0  0  0  0  0  0  0  0  0  0  0  0
    1.8084   -1.5045    0.0000 H   0  0  0  0  0  0  0  0  0  0  0  0
    5.1821   -0.1730    0.0000 H   0  0  0  0  0  0  0  0  0  0  0  0
    6.0291    0.0539    0.0000 H   0  0  0  0  0  0  0  0  0  0  0  0
    5.8021    0.9009    0.0000 H   0  0  0  0  0  0  0  0  0  0  0  0
    2.3571    2.1739    0.0000 H   0  0  0  0  0  0  0  0  0  0  0  0
    5.4921    2.9839    0.0000 H   0  0  0  0  0  0  0  0  0  0  0  0
  1 12  1  0  0  0  0
  1 13  1  0  0  0  0
  2 12  2  0  0  0  0
  3 15  1  0  0  0  0
  3 28  1  0  0  0  0
  4 13  2  0  0  0  0
  5 15  2  0  0  0  0
  6 17  1  0  0  0  0
  6 29  1  0  0  0  0
  7 17  2  0  0  0  0
  8  9  1  0  0  0  0
  8 10  1  0  0  0  0
  8 12  1  0  0  0  0
  8 18  1  0  0  0  0
  9 11  1  0  0  0  0
  9 15  1  0  0  0  0
  9 19  1  0  0  0  0
 10 13  1  0  0  0  0
 10 14  1  0  0  0  0
 10 20  1  0  0  0  0
 11 16  1  0  0  0  0
 11 17  1  0  0  0  0
 11 21  1  0  0  0  0
 14 22  1  0  0  0  0
 14 23  1  0  0  0  0
 14 24  1  0  0  0  0
 16 25  1  0  0  0  0
 16 26  1  0  0  0  0
 16 27  1  0  0  0  0
M  END
> <PUBCHEM_COMPOUND_CID>
88552820

> <PUBCHEM_COMPOUND_CANONICALIZED>
1

> <PUBCHEM_CACTVS_COMPLEXITY>
386

> <PUBCHEM_CACTVS_HBOND_ACCEPTOR>
7

> <PUBCHEM_CACTVS_HBOND_DONOR>
2

> <PUBCHEM_CACTVS_ROTATABLE_BOND>
4

> <PUBCHEM_CACTVS_SUBSKEYS>
AAADccBwOAAAAAAAAAAAAAAAAAAAASAAAAAAAAAAAAAAAAAAAAAAGgAACAAADQCAgAACCAAABgAIAACQCAAAAAAAAAAAAAEAAAAAABIAAAACQAAEAAAAAAHLbhgOgAAAAAAAAAAAAAAAAAAAAAAAAAAAAA==

> <PUBCHEM_IUPAC_OPENEYE_NAME>
2-methyl-3-(4-methyl-2,5-dioxo-tetrahydrofuran-3-yl)butanedioic acid

> <PUBCHEM_IUPAC_CAS_NAME>
2-methyl-3-(4-methyl-2,5-dioxo-3-oxolanyl)butanedioic acid

> <PUBCHEM_IUPAC_NAME_MARKUP>
2-methyl-3-(4-methyl-2,5-dioxooxolan-3-yl)butanedioic acid

> <PUBCHEM_IUPAC_NAME>
2-methyl-3-(4-methyl-2,5-dioxooxolan-3-yl)butanedioic acid

> <PUBCHEM_IUPAC_SYSTEMATIC_NAME>
2-methyl-3-[4-methyl-2,5-bis(oxidanylidene)oxolan-3-yl]butanedioic acid

> <PUBCHEM_IUPAC_TRADITIONAL_NAME>
2-(2,5-diketo-4-methyl-tetrahydrofuran-3-yl)-3-methyl-succinic acid

> <PUBCHEM_IUPAC_INCHI>
InChI=1S/C10H12O7/c1-3(7(11)12)5(8(13)14)6-4(2)9(15)17-10(6)16/h3-6H,1-2H3,(H,11,12)(H,13,14)

> <PUBCHEM_IUPAC_INCHIKEY>
OKAVVMGXIPLPBS-UHFFFAOYSA-N

> <PUBCHEM_XLOGP3_AA>
-0.3

> <PUBCHEM_EXACT_MASS>
244.05830272

> <PUBCHEM_MOLECULAR_FORMULA>
C10H12O7

> <PUBCHEM_MOLECULAR_WEIGHT>
244.20

> <PUBCHEM_OPENEYE_CAN_SMILES>
CC1C(C(=O)OC1=O)C(C(C)C(=O)O)C(=O)O

> <PUBCHEM_OPENEYE_ISO_SMILES>
CC1C(C(=O)OC1=O)C(C(C)C(=O)O)C(=O)O

> <PUBCHEM_CACTVS_TPSA>
118

> <PUBCHEM_MONOISOTOPIC_WEIGHT>
244.05830272

> <PUBCHEM_TOTAL_CHARGE>
0

> <PUBCHEM_HEAVY_ATOM_COUNT>
17

> <PUBCHEM_ATOM_DEF_STEREO_COUNT>
0

> <PUBCHEM_ATOM_UDEF_STEREO_COUNT>
4

> <PUBCHEM_BOND_DEF_STEREO_COUNT>
0

> <PUBCHEM_BOND_UDEF_STEREO_COUNT>
0

> <PUBCHEM_ISOTOPIC_ATOM_COUNT>
0

> <PUBCHEM_COMPONENT_COUNT>
1

> <PUBCHEM_CACTVS_TAUTO_COUNT>
-1

> <PUBCHEM_COORDINATE_TYPE>
1
5
255

> <PUBCHEM_BONDANNOTATIONS>
10  14  3
11  16  3
8  12  3
9  15  3

$$$$
