 
  -OEChem-10192103492D

 55 56  0     1  0  0  0  0  0999 V2000
    4.2690   -1.6550    0.0000 O   0  0  0  0  0  0  0  0  0  0  0  0
    7.7331    2.3450    0.0000 O   0  0  0  0  0  0  0  0  0  0  0  0
    6.0010   -1.6550    0.0000 O   0  0  0  0  0  0  0  0  0  0  0  0
    6.8671    0.8450    0.0000 O   0  0  0  0  0  0  0  0  0  0  0  0
    4.2690   -4.6550    0.0000 O   0  0  0  0  0  0  0  0  0  0  0  0
    2.5369   -3.6550    0.0000 O   0  0  0  0  0  0  0  0  0  0  0  0
    6.0010   -3.6550    0.0000 O   0  0  0  0  0  0  0  0  0  0  0  0
   10.3312    0.8450    0.0000 O   0  0  0  0  0  0  0  0  0  0  0  0
   10.3312    2.8450    0.0000 O   0  0  0  0  0  0  0  0  0  0  0  0
    8.5991   -0.1550    0.0000 O   0  0  0  0  0  0  0  0  0  0  0  0
    2.5369   -0.6550    0.0000 O   0  0  0  0  0  0  0  0  0  0  0  0
    7.7331    4.3450    0.0000 O   0  0  0  0  0  0  0  0  0  0  0  0
    4.2690   -3.6550    0.0000 C   0  0  1  0  0  0  0  0  0  0  0  0
    3.4030   -3.1550    0.0000 C   0  0  1  0  0  0  0  0  0  0  0  0
    5.1350   -3.1550    0.0000 C   0  0  2  0  0  0  0  0  0  0  0  0
    9.4651    1.3450    0.0000 C   0  0  1  0  0  0  0  0  0  0  0  0
    9.4651    2.3450    0.0000 C   0  0  1  0  0  0  0  0  0  0  0  0
    8.5991    0.8450    0.0000 C   0  0  2  0  0  0  0  0  0  0  0  0
    3.4030   -2.1550    0.0000 C   0  0  1  0  0  0  0  0  0  0  0  0
    5.1350   -2.1550    0.0000 C   0  0  3  0  0  0  0  0  0  0  0  0
    8.5991    2.8450    0.0000 C   0  0  1  0  0  0  0  0  0  0  0  0
    7.7331    1.3450    0.0000 C   0  0  3  0  0  0  0  0  0  0  0  0
    6.0010   -0.6550    0.0000 C   0  0  3  0  0  0  0  0  0  0  0  0
    6.8671   -0.1550    0.0000 C   0  0  0  0  0  0  0  0  0  0  0  0
    2.5369   -1.6550    0.0000 C   0  0  0  0  0  0  0  0  0  0  0  0
    8.5991    3.8450    0.0000 C   0  0  0  0  0  0  0  0  0  0  0  0
    5.1350   -0.1550    0.0000 C   0  0  0  0  0  0  0  0  0  0  0  0
    3.7320   -3.9650    0.0000 H   0  0  0  0  0  0  0  0  0  0  0  0
    3.4030   -3.7750    0.0000 H   0  0  0  0  0  0  0  0  0  0  0  0
    5.1350   -3.7750    0.0000 H   0  0  0  0  0  0  0  0  0  0  0  0
    9.4651    0.7250    0.0000 H   0  0  0  0  0  0  0  0  0  0  0  0
   10.0021    2.0350    0.0000 H   0  0  0  0  0  0  0  0  0  0  0  0
    8.0622    0.5350    0.0000 H   0  0  0  0  0  0  0  0  0  0  0  0
    3.4030   -1.5350    0.0000 H   0  0  0  0  0  0  0  0  0  0  0  0
    5.1350   -1.5350    0.0000 H   0  0  0  0  0  0  0  0  0  0  0  0
    8.0622    3.1550    0.0000 H   0  0  0  0  0  0  0  0  0  0  0  0
    7.1962    1.6550    0.0000 H   0  0  0  0  0  0  0  0  0  0  0  0
    6.5380   -0.9650    0.0000 H   0  0  0  0  0  0  0  0  0  0  0  0
    7.0791   -0.7376    0.0000 H   0  0  0  0  0  0  0  0  0  0  0  0
    7.4776   -0.0473    0.0000 H   0  0  0  0  0  0  0  0  0  0  0  0
    1.9264   -1.5473    0.0000 H   0  0  0  0  0  0  0  0  0  0  0  0
    2.3249   -2.2376    0.0000 H   0  0  0  0  0  0  0  0  0  0  0  0
    9.2097    3.7373    0.0000 H   0  0  0  0  0  0  0  0  0  0  0  0
    8.8112    4.4276    0.0000 H   0  0  0  0  0  0  0  0  0  0  0  0
    3.7320   -4.9650    0.0000 H   0  0  0  0  0  0  0  0  0  0  0  0
    2.0000   -3.3450    0.0000 H   0  0  0  0  0  0  0  0  0  0  0  0
    6.5380   -3.3450    0.0000 H   0  0  0  0  0  0  0  0  0  0  0  0
   10.8681    1.1550    0.0000 H   0  0  0  0  0  0  0  0  0  0  0  0
   10.3312    3.4650    0.0000 H   0  0  0  0  0  0  0  0  0  0  0  0
    9.1360   -0.4650    0.0000 H   0  0  0  0  0  0  0  0  0  0  0  0
    5.4450    0.3819    0.0000 H   0  0  0  0  0  0  0  0  0  0  0  0
    4.5981    0.1550    0.0000 H   0  0  0  0  0  0  0  0  0  0  0  0
    4.8250   -0.6919    0.0000 H   0  0  0  0  0  0  0  0  0  0  0  0
    2.0000   -0.3450    0.0000 H   0  0  0  0  0  0  0  0  0  0  0  0
    7.7331    4.9650    0.0000 H   0  0  0  0  0  0  0  0  0  0  0  0
  1 19  1  0  0  0  0
  1 20  1  0  0  0  0
  2 21  1  0  0  0  0
  2 22  1  0  0  0  0
  3 20  1  0  0  0  0
  3 23  1  0  0  0  0
  4 22  1  0  0  0  0
  4 24  1  0  0  0  0
 13  5  1  1  0  0  0
  5 45  1  0  0  0  0
 14  6  1  6  0  0  0
  6 46  1  0  0  0  0
 15  7  1  6  0  0  0
  7 47  1  0  0  0  0
 16  8  1  6  0  0  0
  8 48  1  0  0  0  0
 17  9  1  1  0  0  0
  9 49  1  0  0  0  0
 18 10  1  1  0  0  0
 10 50  1  0  0  0  0
 11 25  1  0  0  0  0
 11 54  1  0  0  0  0
 12 26  1  0  0  0  0
 12 55  1  0  0  0  0
 13 14  1  0  0  0  0
 13 15  1  0  0  0  0
 13 28  1  0  0  0  0
 14 19  1  0  0  0  0
 14 29  1  0  0  0  0
 15 20  1  0  0  0  0
 15 30  1  0  0  0  0
 16 17  1  0  0  0  0
 16 18  1  0  0  0  0
 16 31  1  0  0  0  0
 17 21  1  0  0  0  0
 17 32  1  0  0  0  0
 18 22  1  0  0  0  0
 18 33  1  0  0  0  0
 19 25  1  1  0  0  0
 19 34  1  0  0  0  0
 20 35  1  0  0  0  0
 21 26  1  6  0  0  0
 21 36  1  0  0  0  0
 22 37  1  0  0  0  0
 23 24  1  0  0  0  0
 23 27  1  0  0  0  0
 23 38  1  0  0  0  0
 24 39  1  0  0  0  0
 24 40  1  0  0  0  0
 25 41  1  0  0  0  0
 25 42  1  0  0  0  0
 26 43  1  0  0  0  0
 26 44  1  0  0  0  0
 27 51  1  0  0  0  0
 27 52  1  0  0  0  0
 27 53  1  0  0  0  0
M  END
> <PUBCHEM_COMPOUND_CID>
54362893

> <PUBCHEM_COMPOUND_CANONICALIZED>
1

> <PUBCHEM_CACTVS_COMPLEXITY>
453

> <PUBCHEM_CACTVS_HBOND_ACCEPTOR>
12

> <PUBCHEM_CACTVS_HBOND_DONOR>
8

> <PUBCHEM_CACTVS_ROTATABLE_BOND>
7

> <PUBCHEM_CACTVS_SUBSKEYS>
AAADceBwPAAAAAAAAAAAAAAAAAAAAAAAAAAkSAAAAAAAAAAAAAAAGgAACAAACBSwgAMCCAAABgAAAAAAAAAAAAAAAAAAAAAAAAAREAIAAAAiQAAFAAAHAAHAYAwAAAAAAAAAAAAAAAAAAAAAAAAAAAAAAA==

> <PUBCHEM_IUPAC_OPENEYE_NAME>
(2R,3S,4S,5R)-2-(hydroxymethyl)-6-[2-[(3R,4S,5S,6R)-3,4,5-trihydroxy-6-(hydroxymethyl)tetrahydropyran-2-yl]oxypropoxy]tetrahydropyran-3,4,5-triol

> <PUBCHEM_IUPAC_CAS_NAME>
(2R,3S,4S,5R)-2-(hydroxymethyl)-6-[2-[[(3R,4S,5S,6R)-3,4,5-trihydroxy-6-(hydroxymethyl)-2-oxanyl]oxy]propoxy]oxane-3,4,5-triol

> <PUBCHEM_IUPAC_NAME_MARKUP>
(2<I>R</I>,3<I>S</I>,4<I>S</I>,5<I>R</I>)-2-(hydroxymethyl)-6-[2-[(3<I>R</I>,4<I>S</I>,5<I>S</I>,6<I>R</I>)-3,4,5-trihydroxy-6-(hydroxymethyl)oxan-2-yl]oxypropoxy]oxane-3,4,5-triol

> <PUBCHEM_IUPAC_NAME>
(2R,3S,4S,5R)-2-(hydroxymethyl)-6-[2-[(3R,4S,5S,6R)-3,4,5-trihydroxy-6-(hydroxymethyl)oxan-2-yl]oxypropoxy]oxane-3,4,5-triol

> <PUBCHEM_IUPAC_SYSTEMATIC_NAME>
(2R,3S,4S,5R)-2-(hydroxymethyl)-6-[2-[(3R,4S,5S,6R)-6-(hydroxymethyl)-3,4,5-tris(oxidanyl)oxan-2-yl]oxypropoxy]oxane-3,4,5-triol

> <PUBCHEM_IUPAC_TRADITIONAL_NAME>
(2R,3S,4S,5R)-2-methylol-6-[2-[(3R,4S,5S,6R)-3,4,5-trihydroxy-6-methylol-tetrahydropyran-2-yl]oxypropoxy]tetrahydropyran-3,4,5-triol

> <PUBCHEM_IUPAC_INCHI>
InChI=1S/C15H28O12/c1-5(25-15-13(23)11(21)9(19)7(3-17)27-15)4-24-14-12(22)10(20)8(18)6(2-16)26-14/h5-23H,2-4H2,1H3/t5?,6-,7-,8-,9-,10+,11+,12-,13-,14?,15?/m1/s1

> <PUBCHEM_IUPAC_INCHIKEY>
UNTBUZPBCYEQKT-FUGIHKBLSA-N

> <PUBCHEM_XLOGP3_AA>
-3.9

> <PUBCHEM_EXACT_MASS>
400.15807632

> <PUBCHEM_MOLECULAR_FORMULA>
C15H28O12

> <PUBCHEM_MOLECULAR_WEIGHT>
400.38

> <PUBCHEM_OPENEYE_CAN_SMILES>
CC(COC1C(C(C(C(O1)CO)O)O)O)OC2C(C(C(C(O2)CO)O)O)O

> <PUBCHEM_OPENEYE_ISO_SMILES>
CC(COC1[C@@H]([C@H]([C@@H]([C@H](O1)CO)O)O)O)OC2[C@@H]([C@H]([C@@H]([C@H](O2)CO)O)O)O

> <PUBCHEM_CACTVS_TPSA>
199

> <PUBCHEM_MONOISOTOPIC_WEIGHT>
400.15807632

> <PUBCHEM_TOTAL_CHARGE>
0

> <PUBCHEM_HEAVY_ATOM_COUNT>
27

> <PUBCHEM_ATOM_DEF_STEREO_COUNT>
8

> <PUBCHEM_ATOM_UDEF_STEREO_COUNT>
3

> <PUBCHEM_BOND_DEF_STEREO_COUNT>
0

> <PUBCHEM_BOND_UDEF_STEREO_COUNT>
0

> <PUBCHEM_ISOTOPIC_ATOM_COUNT>
0

> <PUBCHEM_COMPONENT_COUNT>
1

> <PUBCHEM_CACTVS_TAUTO_COUNT>
-1

> <PUBCHEM_COORDINATE_TYPE>
1
5
255

> <PUBCHEM_BONDANNOTATIONS>
18  10  5
19  25  5
21  26  6
23  27  3
20  3  3
22  4  3
13  5  5
14  6  6
15  7  6
16  8  6
17  9  5

$$$$
