 
  -OEChem-10192103502D

 30 30  0     1  0  0  0  0  0999 V2000
    4.5981    0.4050    0.0000 O   0  0  0  0  0  0  0  0  0  0  0  0
    6.3301    0.4050    0.0000 O   0  0  0  0  0  0  0  0  0  0  0  0
    4.5981   -2.5950    0.0000 O   0  0  0  0  0  0  0  0  0  0  0  0
    2.8660   -1.5950    0.0000 O   0  0  0  0  0  0  0  0  0  0  0  0
    6.3301   -1.5950    0.0000 O   0  0  0  0  0  0  0  0  0  0  0  0
    2.8660    1.4050    0.0000 O   0  0  0  0  0  0  0  0  0  0  0  0
    2.0000   -0.0950    0.0000 O   0  0  0  0  0  0  0  0  0  0  0  0
    4.5981   -1.5950    0.0000 C   0  0  1  0  0  0  0  0  0  0  0  0
    3.7320   -1.0950    0.0000 C   0  0  2  0  0  0  0  0  0  0  0  0
    5.4641   -1.0950    0.0000 C   0  0  2  0  0  0  0  0  0  0  0  0
    3.7320   -0.0950    0.0000 C   0  0  1  0  0  0  0  0  0  0  0  0
    5.4641   -0.0950    0.0000 C   0  0  2  0  0  0  0  0  0  0  0  0
    2.8660    0.4050    0.0000 C   0  0  0  0  0  0  0  0  0  0  0  0
    6.3301    1.4050    0.0000 C   0  0  0  0  0  0  0  0  0  0  0  0
    7.1962    1.9050    0.0000 C   0  0  0  0  0  0  0  0  0  0  0  0
    7.1962    2.9050    0.0000 C   0  0  0  0  0  0  0  0  0  0  0  0
    4.0611   -1.9050    0.0000 H   0  0  0  0  0  0  0  0  0  0  0  0
    3.1951   -0.7850    0.0000 H   0  0  0  0  0  0  0  0  0  0  0  0
    5.4641   -1.7150    0.0000 H   0  0  0  0  0  0  0  0  0  0  0  0
    3.7320    0.5250    0.0000 H   0  0  0  0  0  0  0  0  0  0  0  0
    5.4641    0.5250    0.0000 H   0  0  0  0  0  0  0  0  0  0  0  0
    5.1350   -2.9050    0.0000 H   0  0  0  0  0  0  0  0  0  0  0  0
    2.8660   -2.2150    0.0000 H   0  0  0  0  0  0  0  0  0  0  0  0
    6.8671   -1.2850    0.0000 H   0  0  0  0  0  0  0  0  0  0  0  0
    6.1181    1.9876    0.0000 H   0  0  0  0  0  0  0  0  0  0  0  0
    5.7196    1.2973    0.0000 H   0  0  0  0  0  0  0  0  0  0  0  0
    2.3291    1.7150    0.0000 H   0  0  0  0  0  0  0  0  0  0  0  0
    7.7331    1.5950    0.0000 H   0  0  0  0  0  0  0  0  0  0  0  0
    7.7331    3.2150    0.0000 H   0  0  0  0  0  0  0  0  0  0  0  0
    6.6592    3.2150    0.0000 H   0  0  0  0  0  0  0  0  0  0  0  0
  1 11  1  0  0  0  0
  1 12  1  0  0  0  0
 12  2  1  6  0  0  0
  2 14  1  0  0  0  0
  8  3  1  1  0  0  0
  3 22  1  0  0  0  0
  9  4  1  1  0  0  0
  4 23  1  0  0  0  0
 10  5  1  6  0  0  0
  5 24  1  0  0  0  0
  6 13  1  0  0  0  0
  6 27  1  0  0  0  0
  7 13  2  0  0  0  0
  8  9  1  0  0  0  0
  8 10  1  0  0  0  0
  8 17  1  0  0  0  0
  9 11  1  0  0  0  0
  9 18  1  0  0  0  0
 10 12  1  0  0  0  0
 10 19  1  0  0  0  0
 11 13  1  1  0  0  0
 11 20  1  0  0  0  0
 12 21  1  0  0  0  0
 14 15  1  0  0  0  0
 14 25  1  0  0  0  0
 14 26  1  0  0  0  0
 15 16  2  0  0  0  0
 15 28  1  0  0  0  0
 16 29  1  0  0  0  0
 16 30  1  0  0  0  0
M  END
> <PUBCHEM_COMPOUND_CID>
11564903

> <PUBCHEM_COMPOUND_CANONICALIZED>
1

> <PUBCHEM_CACTVS_COMPLEXITY>
267

> <PUBCHEM_CACTVS_HBOND_ACCEPTOR>
7

> <PUBCHEM_CACTVS_HBOND_DONOR>
4

> <PUBCHEM_CACTVS_ROTATABLE_BOND>
4

> <PUBCHEM_CACTVS_SUBSKEYS>
AAADccBwOAAAAAAAAAAAAAAAAAAAAAAAAAAkAAAAAAAAAAAAAAAAGgAACAAACBSwgAMACAAABgCIACDSCAIAAAAAAAAIAAFAAAARFBYAIQQiQAAFIAAHIAHKbAxAAAAAAAAAAAAAAAAAAAAAAAAAAAAAAA==

> <PUBCHEM_IUPAC_OPENEYE_NAME>
(2S,3R,4S,5R,6S)-6-allyloxy-3,4,5-trihydroxy-tetrahydropyran-2-carboxylic acid

> <PUBCHEM_IUPAC_CAS_NAME>
(2S,3R,4S,5R,6S)-3,4,5-trihydroxy-6-prop-2-enoxy-2-oxanecarboxylic acid

> <PUBCHEM_IUPAC_NAME_MARKUP>
(2<I>S</I>,3<I>R</I>,4<I>S</I>,5<I>R</I>,6<I>S</I>)-3,4,5-trihydroxy-6-prop-2-enoxyoxane-2-carboxylic acid

> <PUBCHEM_IUPAC_NAME>
(2S,3R,4S,5R,6S)-3,4,5-trihydroxy-6-prop-2-enoxyoxane-2-carboxylic acid

> <PUBCHEM_IUPAC_SYSTEMATIC_NAME>
(2S,3R,4S,5R,6S)-3,4,5-tris(oxidanyl)-6-prop-2-enoxy-oxane-2-carboxylic acid

> <PUBCHEM_IUPAC_TRADITIONAL_NAME>
(2S,3R,4S,5R,6S)-6-allyloxy-3,4,5-trihydroxy-tetrahydropyran-2-carboxylic acid

> <PUBCHEM_IUPAC_INCHI>
InChI=1S/C9H14O7/c1-2-3-15-9-6(12)4(10)5(11)7(16-9)8(13)14/h2,4-7,9-12H,1,3H2,(H,13,14)/t4-,5+,6+,7-,9-/m0/s1

> <PUBCHEM_IUPAC_INCHIKEY>
NUGFAAFMMUFDMM-FIJBBSBCSA-N

> <PUBCHEM_XLOGP3_AA>
-1.2

> <PUBCHEM_EXACT_MASS>
234.07395278

> <PUBCHEM_MOLECULAR_FORMULA>
C9H14O7

> <PUBCHEM_MOLECULAR_WEIGHT>
234.20

> <PUBCHEM_OPENEYE_CAN_SMILES>
C=CCOC1C(C(C(C(O1)C(=O)O)O)O)O

> <PUBCHEM_OPENEYE_ISO_SMILES>
C=CCO[C@@H]1[C@@H]([C@H]([C@H]([C@H](O1)C(=O)O)O)O)O

> <PUBCHEM_CACTVS_TPSA>
116

> <PUBCHEM_MONOISOTOPIC_WEIGHT>
234.07395278

> <PUBCHEM_TOTAL_CHARGE>
0

> <PUBCHEM_HEAVY_ATOM_COUNT>
16

> <PUBCHEM_ATOM_DEF_STEREO_COUNT>
5

> <PUBCHEM_ATOM_UDEF_STEREO_COUNT>
0

> <PUBCHEM_BOND_DEF_STEREO_COUNT>
0

> <PUBCHEM_BOND_UDEF_STEREO_COUNT>
0

> <PUBCHEM_ISOTOPIC_ATOM_COUNT>
0

> <PUBCHEM_COMPONENT_COUNT>
1

> <PUBCHEM_CACTVS_TAUTO_COUNT>
-1

> <PUBCHEM_COORDINATE_TYPE>
1
5
255

> <PUBCHEM_BONDANNOTATIONS>
11  13  5
12  2  6
8  3  5
9  4  5
10  5  6

$$$$
