 
  -OEChem-10192103462D

 75 79  0     1  0  0  0  0  0999 V2000
   12.9628    3.1212    0.0000 O   0  0  0  0  0  0  0  0  0  0  0  0
    5.1350   -2.4246    0.0000 O   0  0  0  0  0  0  0  0  0  0  0  0
   12.0910    1.6246    0.0000 O   0  0  0  0  0  0  0  0  0  0  0  0
    6.8671   -2.4246    0.0000 O   0  0  0  0  0  0  0  0  0  0  0  0
   15.5550    1.6112    0.0000 O   0  0  0  0  0  0  0  0  0  0  0  0
    5.1350   -5.4246    0.0000 O   0  0  0  0  0  0  0  0  0  0  0  0
   15.5627    3.6112    0.0000 O   0  0  0  0  0  0  0  0  0  0  0  0
   13.8191    0.6179    0.0000 O   0  0  0  0  0  0  0  0  0  0  0  0
    3.4030   -4.4246    0.0000 O   0  0  0  0  0  0  0  0  0  0  0  0
    6.8671   -4.4246    0.0000 O   0  0  0  0  0  0  0  0  0  0  0  0
   14.7025    5.1146    0.0000 O   0  0  0  0  0  0  0  0  0  0  0  0
    2.5369   -2.9246    0.0000 O   0  0  0  0  0  0  0  0  0  0  0  0
   12.9705    5.1212    0.0000 O   0  0  0  0  0  0  0  0  0  0  0  0
    3.4030   -1.4246    0.0000 O   0  0  0  0  0  0  0  0  0  0  0  0
    8.6230    0.6380    0.0000 O   0  0  0  0  0  0  0  0  0  0  0  0
   12.0987    3.6246    0.0000 O   0  0  0  0  0  0  0  0  0  0  0  0
   10.3705    4.6312    0.0000 O   0  0  0  0  0  0  0  0  0  0  0  0
    5.1208    0.6546    0.0000 O   0  0  0  0  0  0  0  0  0  0  0  0
    6.0308    2.1480    0.0000 O   0  0  0  0  0  0  0  0  0  0  0  0
   14.6909    2.1146    0.0000 C   0  0  3  0  0  0  0  0  0  0  0  0
    5.1350   -4.4246    0.0000 C   0  0  1  0  0  0  0  0  0  0  0  0
   14.6948    3.1146    0.0000 C   0  0  1  0  0  0  0  0  0  0  0  0
   13.8230    1.6179    0.0000 C   0  0  3  0  0  0  0  0  0  0  0  0
    4.2690   -3.9246    0.0000 C   0  0  1  0  0  0  0  0  0  0  0  0
    6.0010   -3.9246    0.0000 C   0  0  3  0  0  0  0  0  0  0  0  0
   13.8307    3.6179    0.0000 C   0  0  3  0  0  0  0  0  0  0  0  0
   12.9589    2.1212    0.0000 C   0  0  1  0  0  0  0  0  0  0  0  0
    4.2690   -2.9246    0.0000 C   0  0  3  0  0  0  0  0  0  0  0  0
    6.0010   -2.9246    0.0000 C   0  0  1  0  0  0  0  0  0  0  0  0
   13.8346    4.6179    0.0000 C   0  0  0  0  0  0  0  0  0  0  0  0
    3.4030   -2.4246    0.0000 C   0  0  0  0  0  0  0  0  0  0  0  0
   11.2269    2.1279    0.0000 C   0  0  0  0  0  0  0  0  0  0  0  0
    6.8671   -1.4246    0.0000 C   0  0  0  0  0  0  0  0  0  0  0  0
   10.3589    1.6313    0.0000 C   0  0  0  0  0  0  0  0  0  0  0  0
    7.7671   -0.9003    0.0000 C   0  0  0  0  0  0  0  0  0  0  0  0
   11.2307    3.1279    0.0000 C   0  0  0  0  0  0  0  0  0  0  0  0
    9.4948    2.1346    0.0000 C   0  0  0  0  0  0  0  0  0  0  0  0
    5.9670   -0.9003    0.0000 C   0  0  0  0  0  0  0  0  0  0  0  0
    7.7551    0.1413    0.0000 C   0  0  0  0  0  0  0  0  0  0  0  0
    6.8910    0.6446    0.0000 C   0  0  0  0  0  0  0  0  0  0  0  0
    8.6269    1.6380    0.0000 C   0  0  0  0  0  0  0  0  0  0  0  0
    5.9790    0.1413    0.0000 C   0  0  0  0  0  0  0  0  0  0  0  0
   10.3666    3.6313    0.0000 C   0  0  0  0  0  0  0  0  0  0  0  0
    9.4987    3.1346    0.0000 C   0  0  0  0  0  0  0  0  0  0  0  0
    6.8948    1.6446    0.0000 C   0  0  0  0  0  0  0  0  0  0  0  0
    7.7628    2.1413    0.0000 C   0  0  0  0  0  0  0  0  0  0  0  0
    9.5064    5.1346    0.0000 C   0  0  0  0  0  0  0  0  0  0  0  0
   15.2291    2.4225    0.0000 H   0  0  0  0  0  0  0  0  0  0  0  0
    4.5981   -4.7345    0.0000 H   0  0  0  0  0  0  0  0  0  0  0  0
   14.6972    3.7346    0.0000 H   0  0  0  0  0  0  0  0  0  0  0  0
   14.3587    1.3058    0.0000 H   0  0  0  0  0  0  0  0  0  0  0  0
    3.7320   -3.6146    0.0000 H   0  0  0  0  0  0  0  0  0  0  0  0
    6.0010   -4.5446    0.0000 H   0  0  0  0  0  0  0  0  0  0  0  0
   13.2950    3.9300    0.0000 H   0  0  0  0  0  0  0  0  0  0  0  0
   12.4232    2.4333    0.0000 H   0  0  0  0  0  0  0  0  0  0  0  0
    4.2690   -2.3046    0.0000 H   0  0  0  0  0  0  0  0  0  0  0  0
    6.0010   -2.3046    0.0000 H   0  0  0  0  0  0  0  0  0  0  0  0
   15.5526    0.9912    0.0000 H   0  0  0  0  0  0  0  0  0  0  0  0
    5.6720   -5.7345    0.0000 H   0  0  0  0  0  0  0  0  0  0  0  0
   16.0985    3.2992    0.0000 H   0  0  0  0  0  0  0  0  0  0  0  0
   13.2810    0.3100    0.0000 H   0  0  0  0  0  0  0  0  0  0  0  0
    3.4030   -5.0446    0.0000 H   0  0  0  0  0  0  0  0  0  0  0  0
    7.4040   -4.1146    0.0000 H   0  0  0  0  0  0  0  0  0  0  0  0
   10.3565    1.0113    0.0000 H   0  0  0  0  0  0  0  0  0  0  0  0
    8.3064   -1.2061    0.0000 H   0  0  0  0  0  0  0  0  0  0  0  0
    5.4277   -1.2061    0.0000 H   0  0  0  0  0  0  0  0  0  0  0  0
   14.7049    5.7345    0.0000 H   0  0  0  0  0  0  0  0  0  0  0  0
    2.0000   -2.6146    0.0000 H   0  0  0  0  0  0  0  0  0  0  0  0
    8.9630    3.4467    0.0000 H   0  0  0  0  0  0  0  0  0  0  0  0
    7.7652    2.7613    0.0000 H   0  0  0  0  0  0  0  0  0  0  0  0
   12.1011    4.2446    0.0000 H   0  0  0  0  0  0  0  0  0  0  0  0
    4.5792    0.3529    0.0000 H   0  0  0  0  0  0  0  0  0  0  0  0
    9.8185    5.6703    0.0000 H   0  0  0  0  0  0  0  0  0  0  0  0
    8.9707    5.4466    0.0000 H   0  0  0  0  0  0  0  0  0  0  0  0
    9.1943    4.5988    0.0000 H   0  0  0  0  0  0  0  0  0  0  0  0
  1 26  1  0  0  0  0
  1 27  1  0  0  0  0
  2 28  1  0  0  0  0
  2 29  1  0  0  0  0
 27  3  1  6  0  0  0
  3 32  1  0  0  0  0
 29  4  1  1  0  0  0
  4 33  1  0  0  0  0
  5 20  1  0  0  0  0
  5 58  1  0  0  0  0
 21  6  1  1  0  0  0
  6 59  1  0  0  0  0
 22  7  1  1  0  0  0
  7 60  1  0  0  0  0
  8 23  1  0  0  0  0
  8 61  1  0  0  0  0
 24  9  1  6  0  0  0
  9 62  1  0  0  0  0
 10 25  1  0  0  0  0
 10 63  1  0  0  0  0
 11 30  1  0  0  0  0
 11 67  1  0  0  0  0
 12 31  1  0  0  0  0
 12 68  1  0  0  0  0
 13 30  2  0  0  0  0
 14 31  2  0  0  0  0
 15 39  1  0  0  0  0
 15 41  1  0  0  0  0
 16 36  1  0  0  0  0
 16 71  1  0  0  0  0
 17 43  1  0  0  0  0
 17 47  1  0  0  0  0
 18 42  1  0  0  0  0
 18 72  1  0  0  0  0
 19 45  2  0  0  0  0
 20 22  1  0  0  0  0
 20 23  1  0  0  0  0
 20 48  1  0  0  0  0
 21 24  1  0  0  0  0
 21 25  1  0  0  0  0
 21 49  1  0  0  0  0
 22 26  1  0  0  0  0
 22 50  1  0  0  0  0
 23 27  1  0  0  0  0
 23 51  1  0  0  0  0
 24 28  1  0  0  0  0
 24 52  1  0  0  0  0
 25 29  1  0  0  0  0
 25 53  1  0  0  0  0
 26 30  1  0  0  0  0
 26 54  1  0  0  0  0
 27 55  1  0  0  0  0
 28 31  1  0  0  0  0
 28 56  1  0  0  0  0
 29 57  1  0  0  0  0
 32 34  2  0  0  0  0
 32 36  1  0  0  0  0
 33 35  1  0  0  0  0
 33 38  2  0  0  0  0
 34 37  1  0  0  0  0
 34 64  1  0  0  0  0
 35 39  2  0  0  0  0
 35 65  1  0  0  0  0
 36 43  2  0  0  0  0
 37 41  1  0  0  0  0
 37 44  2  0  0  0  0
 38 42  1  0  0  0  0
 38 66  1  0  0  0  0
 39 40  1  0  0  0  0
 40 42  2  0  0  0  0
 40 45  1  0  0  0  0
 41 46  2  0  0  0  0
 43 44  1  0  0  0  0
 44 69  1  0  0  0  0
 45 46  1  0  0  0  0
 46 70  1  0  0  0  0
 47 73  1  0  0  0  0
 47 74  1  0  0  0  0
 47 75  1  0  0  0  0
M  END
> <PUBCHEM_COMPOUND_CID>
44258258

> <PUBCHEM_COMPOUND_CANONICALIZED>
1

> <PUBCHEM_CACTVS_COMPLEXITY>
1200

> <PUBCHEM_CACTVS_HBOND_ACCEPTOR>
19

> <PUBCHEM_CACTVS_HBOND_DONOR>
10

> <PUBCHEM_CACTVS_ROTATABLE_BOND>
8

> <PUBCHEM_CACTVS_SUBSKEYS>
AAADceB4PgAAAAAAAAAAAAAAAAAAAAAAAAA0aIECAAAAAACBQAAAGgAACAAADBSwmAMyDoAABgCIAqDSCAICCAAkIAAAiAFGiMgdNzaGNR6ieWOl4BUPuQfK7LzOIAABCAAIQABAAAIQABCAAAAAAAAAAA==

> <PUBCHEM_IUPAC_OPENEYE_NAME>
(3S,4S,6S)-6-[2-[3-[(2S,5S)-6-carboxy-3,4,5-trihydroxy-tetrahydropyran-2-yl]oxy-4-hydroxy-5-methoxy-phenyl]-5-hydroxy-4-oxo-chromen-7-yl]oxy-3,4,5-trihydroxy-tetrahydropyran-2-carboxylic acid

> <PUBCHEM_IUPAC_CAS_NAME>
(3S,4S,6S)-6-[[2-[3-[[(2S,5S)-6-carboxy-3,4,5-trihydroxy-2-oxanyl]oxy]-4-hydroxy-5-methoxyphenyl]-5-hydroxy-4-oxo-1-benzopyran-7-yl]oxy]-3,4,5-trihydroxy-2-oxanecarboxylic acid

> <PUBCHEM_IUPAC_NAME_MARKUP>
(3<I>S</I>,4<I>S</I>,6<I>S</I>)-6-[2-[3-[(2<I>S</I>,5<I>S</I>)-6-carboxy-3,4,5-trihydroxyoxan-2-yl]oxy-4-hydroxy-5-methoxyphenyl]-5-hydroxy-4-oxochromen-7-yl]oxy-3,4,5-trihydroxyoxane-2-carboxylic acid

> <PUBCHEM_IUPAC_NAME>
(3S,4S,6S)-6-[2-[3-[(2S,5S)-6-carboxy-3,4,5-trihydroxyoxan-2-yl]oxy-4-hydroxy-5-methoxyphenyl]-5-hydroxy-4-oxochromen-7-yl]oxy-3,4,5-trihydroxyoxane-2-carboxylic acid

> <PUBCHEM_IUPAC_SYSTEMATIC_NAME>
(3S,4S,6S)-6-[2-[3-[(2S,5S)-6-carboxy-3,4,5-tris(oxidanyl)oxan-2-yl]oxy-5-methoxy-4-oxidanyl-phenyl]-5-oxidanyl-4-oxidanylidene-chromen-7-yl]oxy-3,4,5-tris(oxidanyl)oxane-2-carboxylic acid

> <PUBCHEM_IUPAC_TRADITIONAL_NAME>
(3S,4S,6S)-6-[2-[3-[(2S,5S)-6-carboxy-3,4,5-trihydroxy-tetrahydropyran-2-yl]oxy-4-hydroxy-5-methoxy-phenyl]-5-hydroxy-4-keto-chromen-7-yl]oxy-3,4,5-trihydroxy-tetrahydropyran-2-carboxylic acid

> <PUBCHEM_IUPAC_INCHI>
InChI=1S/C28H28O19/c1-42-13-2-7(3-14(16(13)31)45-28-22(37)18(33)20(35)24(47-28)26(40)41)11-6-10(30)15-9(29)4-8(5-12(15)44-11)43-27-21(36)17(32)19(34)23(46-27)25(38)39/h2-6,17-24,27-29,31-37H,1H3,(H,38,39)(H,40,41)/t17-,18?,19-,20-,21?,22?,23?,24?,27+,28+/m0/s1

> <PUBCHEM_IUPAC_INCHIKEY>
CVQDTIXQCRHCMN-VMNGHMBVSA-N

> <PUBCHEM_XLOGP3_AA>
-0.8

> <PUBCHEM_EXACT_MASS>
668.12247866

> <PUBCHEM_MOLECULAR_FORMULA>
C28H28O19

> <PUBCHEM_MOLECULAR_WEIGHT>
668.5

> <PUBCHEM_OPENEYE_CAN_SMILES>
COC1=C(C(=CC(=C1)C2=CC(=O)C3=C(C=C(C=C3O2)OC4C(C(C(C(O4)C(=O)O)O)O)O)O)OC5C(C(C(C(O5)C(=O)O)O)O)O)O

> <PUBCHEM_OPENEYE_ISO_SMILES>
COC1=C(C(=CC(=C1)C2=CC(=O)C3=C(C=C(C=C3O2)O[C@H]4C([C@H]([C@@H](C(O4)C(=O)O)O)O)O)O)O[C@H]5C(C([C@@H](C(O5)C(=O)O)O)O)O)O

> <PUBCHEM_CACTVS_TPSA>
309

> <PUBCHEM_MONOISOTOPIC_WEIGHT>
668.12247866

> <PUBCHEM_TOTAL_CHARGE>
0

> <PUBCHEM_HEAVY_ATOM_COUNT>
47

> <PUBCHEM_ATOM_DEF_STEREO_COUNT>
5

> <PUBCHEM_ATOM_UDEF_STEREO_COUNT>
5

> <PUBCHEM_BOND_DEF_STEREO_COUNT>
0

> <PUBCHEM_BOND_UDEF_STEREO_COUNT>
0

> <PUBCHEM_ISOTOPIC_ATOM_COUNT>
0

> <PUBCHEM_COMPONENT_COUNT>
1

> <PUBCHEM_CACTVS_TAUTO_COUNT>
-1

> <PUBCHEM_COORDINATE_TYPE>
1
5
255

> <PUBCHEM_BONDANNOTATIONS>
25  10  3
15  39  8
15  41  8
26  30  3
28  31  3
27  3  6
32  34  8
32  36  8
33  35  8
33  38  8
34  37  8
35  39  8
36  43  8
37  44  8
38  42  8
39  40  8
29  4  5
40  42  8
40  45  8
41  46  8
43  44  8
45  46  8
20  5  3
21  6  5
22  7  5
23  8  3
24  9  6

$$$$
