 
  -OEChem-10192104272D

 65 66  0     1  0  0  0  0  0999 V2000
    5.4641    0.0950    0.0000 O   0  0  0  0  0  0  0  0  0  0  0  0
    7.1962    0.0950    0.0000 O   0  0  0  0  0  0  0  0  0  0  0  0
    6.3301    1.5950    0.0000 O   0  0  0  0  0  0  0  0  0  0  0  0
    5.4641   -2.9050    0.0000 O   0  0  0  0  0  0  0  0  0  0  0  0
    7.1962   -1.9050    0.0000 O   0  0  0  0  0  0  0  0  0  0  0  0
    3.7320   -1.9050    0.0000 O   0  0  0  0  0  0  0  0  0  0  0  0
    8.9282    1.0950    0.0000 O   0  0  0  0  0  0  0  0  0  0  0  0
    8.9282    3.0950    0.0000 O   0  0  0  0  0  0  0  0  0  0  0  0
    7.1962    4.0950    0.0000 O   0  0  0  0  0  0  0  0  0  0  0  0
    3.7320    1.0950    0.0000 O   0  0  0  0  0  0  0  0  0  0  0  0
    5.4641    4.0950    0.0000 O   0  0  0  0  0  0  0  0  0  0  0  0
    3.7320   -2.9050    0.0000 O   0  0  0  0  0  0  0  0  0  0  0  0
    8.0622   -0.4050    0.0000 O   0  0  0  0  0  0  0  0  0  0  0  0
    2.8660   -0.4050    0.0000 O   0  0  0  0  0  0  0  0  0  0  0  0
    2.0000    1.0950    0.0000 O   0  0  0  0  0  0  0  0  0  0  0  0
    5.4641   -1.9050    0.0000 C   0  0  2  0  0  0  0  0  0  0  0  0
    6.3301   -1.4050    0.0000 C   0  0  2  0  0  0  0  0  0  0  0  0
    4.5981   -1.4050    0.0000 C   0  0  1  0  0  0  0  0  0  0  0  0
    6.3301   -0.4050    0.0000 C   0  0  1  0  0  0  0  0  0  0  0  0
    4.5981   -0.4050    0.0000 C   0  0  1  0  0  0  0  0  0  0  0  0
    7.1962    1.0950    0.0000 C   0  0  2  0  0  0  0  0  0  0  0  0
    8.0622    1.5950    0.0000 C   0  0  1  0  0  0  0  0  0  0  0  0
    8.0622    2.5950    0.0000 C   0  0  2  0  0  0  0  0  0  0  0  0
    7.1962    3.0950    0.0000 C   0  0  1  0  0  0  0  0  0  0  0  0
    6.3301    2.5950    0.0000 C   0  0  1  0  0  0  0  0  0  0  0  0
    3.7320    0.0950    0.0000 C   0  0  0  0  0  0  0  0  0  0  0  0
    5.4641    3.0950    0.0000 C   0  0  0  0  0  0  0  0  0  0  0  0
    4.5981   -3.4050    0.0000 C   0  0  0  0  0  0  0  0  0  0  0  0
    8.0622   -1.4050    0.0000 C   0  0  0  0  0  0  0  0  0  0  0  0
    2.8660   -1.4050    0.0000 C   0  0  0  0  0  0  0  0  0  0  0  0
    4.5981   -4.4050    0.0000 C   0  0  0  0  0  0  0  0  0  0  0  0
    8.9282   -1.9050    0.0000 C   0  0  0  0  0  0  0  0  0  0  0  0
    2.0000   -1.9050    0.0000 C   0  0  0  0  0  0  0  0  0  0  0  0
    2.8660    1.5950    0.0000 C   0  0  0  0  0  0  0  0  0  0  0  0
    2.8660    2.5950    0.0000 C   0  0  0  0  0  0  0  0  0  0  0  0
    4.9272   -2.2150    0.0000 H   0  0  0  0  0  0  0  0  0  0  0  0
    6.3301   -2.0250    0.0000 H   0  0  0  0  0  0  0  0  0  0  0  0
    4.5981   -2.0250    0.0000 H   0  0  0  0  0  0  0  0  0  0  0  0
    6.3301    0.2150    0.0000 H   0  0  0  0  0  0  0  0  0  0  0  0
    4.5981    0.2150    0.0000 H   0  0  0  0  0  0  0  0  0  0  0  0
    7.7331    0.7850    0.0000 H   0  0  0  0  0  0  0  0  0  0  0  0
    8.5991    1.9050    0.0000 H   0  0  0  0  0  0  0  0  0  0  0  0
    8.5991    2.2850    0.0000 H   0  0  0  0  0  0  0  0  0  0  0  0
    7.7331    3.4050    0.0000 H   0  0  0  0  0  0  0  0  0  0  0  0
    5.7932    2.2850    0.0000 H   0  0  0  0  0  0  0  0  0  0  0  0
    3.1215    0.2027    0.0000 H   0  0  0  0  0  0  0  0  0  0  0  0
    3.5200   -0.4876    0.0000 H   0  0  0  0  0  0  0  0  0  0  0  0
    4.8535    3.2027    0.0000 H   0  0  0  0  0  0  0  0  0  0  0  0
    5.2520    2.5124    0.0000 H   0  0  0  0  0  0  0  0  0  0  0  0
    9.4651    1.4050    0.0000 H   0  0  0  0  0  0  0  0  0  0  0  0
    8.9282    3.7150    0.0000 H   0  0  0  0  0  0  0  0  0  0  0  0
    7.7331    4.4050    0.0000 H   0  0  0  0  0  0  0  0  0  0  0  0
    4.9272    4.4050    0.0000 H   0  0  0  0  0  0  0  0  0  0  0  0
    3.9781   -4.4050    0.0000 H   0  0  0  0  0  0  0  0  0  0  0  0
    4.5981   -5.0250    0.0000 H   0  0  0  0  0  0  0  0  0  0  0  0
    5.2181   -4.4050    0.0000 H   0  0  0  0  0  0  0  0  0  0  0  0
    8.6182   -2.4419    0.0000 H   0  0  0  0  0  0  0  0  0  0  0  0
    9.4651   -2.2150    0.0000 H   0  0  0  0  0  0  0  0  0  0  0  0
    9.2382   -1.3681    0.0000 H   0  0  0  0  0  0  0  0  0  0  0  0
    1.6900   -1.3681    0.0000 H   0  0  0  0  0  0  0  0  0  0  0  0
    1.4631   -2.2150    0.0000 H   0  0  0  0  0  0  0  0  0  0  0  0
    2.3100   -2.4419    0.0000 H   0  0  0  0  0  0  0  0  0  0  0  0
    3.4860    2.5950    0.0000 H   0  0  0  0  0  0  0  0  0  0  0  0
    2.8660    3.2150    0.0000 H   0  0  0  0  0  0  0  0  0  0  0  0
    2.2460    2.5950    0.0000 H   0  0  0  0  0  0  0  0  0  0  0  0
  1 19  1  0  0  0  0
  1 20  1  0  0  0  0
 19  2  1  1  0  0  0
 21  2  1  6  0  0  0
  3 21  1  0  0  0  0
  3 25  1  0  0  0  0
 16  4  1  1  0  0  0
  4 28  1  0  0  0  0
 17  5  1  6  0  0  0
  5 29  1  0  0  0  0
 18  6  1  6  0  0  0
  6 30  1  0  0  0  0
 22  7  1  1  0  0  0
  7 50  1  0  0  0  0
 23  8  1  6  0  0  0
  8 51  1  0  0  0  0
 24  9  1  1  0  0  0
  9 52  1  0  0  0  0
 10 26  1  0  0  0  0
 10 34  1  0  0  0  0
 11 27  1  0  0  0  0
 11 53  1  0  0  0  0
 12 28  2  0  0  0  0
 13 29  2  0  0  0  0
 14 30  2  0  0  0  0
 15 34  2  0  0  0  0
 16 17  1  0  0  0  0
 16 18  1  0  0  0  0
 16 36  1  0  0  0  0
 17 19  1  0  0  0  0
 17 37  1  0  0  0  0
 18 20  1  0  0  0  0
 18 38  1  0  0  0  0
 19 39  1  0  0  0  0
 20 26  1  1  0  0  0
 20 40  1  0  0  0  0
 21 22  1  0  0  0  0
 21 41  1  0  0  0  0
 22 23  1  0  0  0  0
 22 42  1  0  0  0  0
 23 24  1  0  0  0  0
 23 43  1  0  0  0  0
 24 25  1  0  0  0  0
 24 44  1  0  0  0  0
 25 27  1  6  0  0  0
 25 45  1  0  0  0  0
 26 46  1  0  0  0  0
 26 47  1  0  0  0  0
 27 48  1  0  0  0  0
 27 49  1  0  0  0  0
 28 31  1  0  0  0  0
 29 32  1  0  0  0  0
 30 33  1  0  0  0  0
 31 54  1  0  0  0  0
 31 55  1  0  0  0  0
 31 56  1  0  0  0  0
 32 57  1  0  0  0  0
 32 58  1  0  0  0  0
 32 59  1  0  0  0  0
 33 60  1  0  0  0  0
 33 61  1  0  0  0  0
 33 62  1  0  0  0  0
 34 35  1  0  0  0  0
 35 63  1  0  0  0  0
 35 64  1  0  0  0  0
 35 65  1  0  0  0  0
M  END
> <PUBCHEM_COMPOUND_CID>
69179149

> <PUBCHEM_COMPOUND_CANONICALIZED>
1

> <PUBCHEM_CACTVS_COMPLEXITY>
772

> <PUBCHEM_CACTVS_HBOND_ACCEPTOR>
15

> <PUBCHEM_CACTVS_HBOND_DONOR>
4

> <PUBCHEM_CACTVS_ROTATABLE_BOND>
12

> <PUBCHEM_CACTVS_SUBSKEYS>
AAADceB4PAAAAAAAAAAAAAAAAAAAAAAAAAAkSAAAAAAAAAAAAAAAGgAACAAACBSwgAMCCAAABgAIAACQCAAAAAAAAAAAAAAAAAAREAIAAAAiQAAFAAAHAAHAYAwAAAAAAAAAAAAAAAAAAAAAAAAAAAAAAA==

> <PUBCHEM_IUPAC_OPENEYE_NAME>
[(2R,3R,4S,5R,6S)-3,4,5-triacetoxy-6-[(2S,3R,4S,5S,6R)-3,4,5-trihydroxy-6-(hydroxymethyl)tetrahydropyran-2-yl]oxy-tetrahydropyran-2-yl]methyl acetate

> <PUBCHEM_IUPAC_CAS_NAME>
acetic acid [(2R,3R,4S,5R,6S)-3,4,5-triacetyloxy-6-[[(2S,3R,4S,5S,6R)-3,4,5-trihydroxy-6-(hydroxymethyl)-2-oxanyl]oxy]-2-oxanyl]methyl ester

> <PUBCHEM_IUPAC_NAME_MARKUP>
[(2<I>R</I>,3<I>R</I>,4<I>S</I>,5<I>R</I>,6<I>S</I>)-3,4,5-triacetyloxy-6-[(2<I>S</I>,3<I>R</I>,4<I>S</I>,5<I>S</I>,6<I>R</I>)-3,4,5-trihydroxy-6-(hydroxymethyl)oxan-2-yl]oxyoxan-2-yl]methyl acetate

> <PUBCHEM_IUPAC_NAME>
[(2R,3R,4S,5R,6S)-3,4,5-triacetyloxy-6-[(2S,3R,4S,5S,6R)-3,4,5-trihydroxy-6-(hydroxymethyl)oxan-2-yl]oxyoxan-2-yl]methyl acetate

> <PUBCHEM_IUPAC_SYSTEMATIC_NAME>
[(2R,3R,4S,5R,6S)-3,4,5-triacetyloxy-6-[(2S,3R,4S,5S,6R)-6-(hydroxymethyl)-3,4,5-tris(oxidanyl)oxan-2-yl]oxy-oxan-2-yl]methyl ethanoate

> <PUBCHEM_IUPAC_TRADITIONAL_NAME>
acetic acid [(2R,3R,4S,5R,6S)-3,4,5-triacetoxy-6-[(2S,3R,4S,5S,6R)-3,4,5-trihydroxy-6-methylol-tetrahydropyran-2-yl]oxy-tetrahydropyran-2-yl]methyl ester

> <PUBCHEM_IUPAC_INCHI>
InChI=1S/C20H30O15/c1-7(22)29-6-12-16(30-8(2)23)17(31-9(3)24)18(32-10(4)25)20(34-12)35-19-15(28)14(27)13(26)11(5-21)33-19/h11-21,26-28H,5-6H2,1-4H3/t11-,12-,13-,14+,15-,16-,17+,18-,19+,20+/m1/s1

> <PUBCHEM_IUPAC_INCHIKEY>
UUNGEQQOEGVUAY-YVZUODSCSA-N

> <PUBCHEM_XLOGP3_AA>
-2.4

> <PUBCHEM_EXACT_MASS>
510.15847025

> <PUBCHEM_MOLECULAR_FORMULA>
C20H30O15

> <PUBCHEM_MOLECULAR_WEIGHT>
510.4

> <PUBCHEM_OPENEYE_CAN_SMILES>
CC(=O)OCC1C(C(C(C(O1)OC2C(C(C(C(O2)CO)O)O)O)OC(=O)C)OC(=O)C)OC(=O)C

> <PUBCHEM_OPENEYE_ISO_SMILES>
CC(=O)OC[C@@H]1[C@H]([C@@H]([C@H]([C@@H](O1)O[C@H]2[C@@H]([C@H]([C@@H]([C@H](O2)CO)O)O)O)OC(=O)C)OC(=O)C)OC(=O)C

> <PUBCHEM_CACTVS_TPSA>
214

> <PUBCHEM_MONOISOTOPIC_WEIGHT>
510.15847025

> <PUBCHEM_TOTAL_CHARGE>
0

> <PUBCHEM_HEAVY_ATOM_COUNT>
35

> <PUBCHEM_ATOM_DEF_STEREO_COUNT>
10

> <PUBCHEM_ATOM_UDEF_STEREO_COUNT>
0

> <PUBCHEM_BOND_DEF_STEREO_COUNT>
0

> <PUBCHEM_BOND_UDEF_STEREO_COUNT>
0

> <PUBCHEM_ISOTOPIC_ATOM_COUNT>
0

> <PUBCHEM_COMPONENT_COUNT>
1

> <PUBCHEM_CACTVS_TAUTO_COUNT>
-1

> <PUBCHEM_COORDINATE_TYPE>
1
5
255

> <PUBCHEM_BONDANNOTATIONS>
19  2  5
21  2  6
20  26  5
25  27  6
16  4  5
17  5  6
18  6  6
22  7  5
23  8  6
24  9  5

$$$$
