 
  -OEChem-10192104382D

 31 31  0     1  0  0  0  0  0999 V2000
    5.5758    1.0319    0.0000 S   0  0  0  0  0  0  0  0  0  0  0  0
    6.3848    0.4441    0.0000 P   0  0  3  0  0  0  0  0  0  0  0  0
    7.1938    1.0319    0.0000 O   0  0  0  0  0  0  0  0  0  0  0  0
    6.9726   -0.3649    0.0000 O   0  0  0  0  0  0  0  0  0  0  0  0
    3.2202   -0.9649    0.0000 O   0  0  0  0  0  0  0  0  0  0  0  0
    2.9945    1.6712    0.0000 O   0  0  0  0  0  0  0  0  0  0  0  0
    4.6215   -1.9830    0.0000 O   0  0  0  0  0  0  0  0  0  0  0  0
    2.8135   -0.0513    0.0000 O   0  0  0  0  0  0  0  0  0  0  0  0
    5.7970   -0.3649    0.0000 N   0  0  0  0  0  0  0  0  0  0  0  0
    4.8025   -0.2604    0.0000 C   0  0  1  0  0  0  0  0  0  0  0  0
    4.3958    0.6532    0.0000 C   0  0  0  0  0  0  0  0  0  0  0  0
    5.8848    1.9830    0.0000 C   0  0  0  0  0  0  0  0  0  0  0  0
    6.8848    1.9830    0.0000 C   0  0  0  0  0  0  0  0  0  0  0  0
    4.2147   -1.0694    0.0000 C   0  0  0  0  0  0  0  0  0  0  0  0
    3.4013    0.7577    0.0000 C   0  0  0  0  0  0  0  0  0  0  0  0
    2.6324   -1.7739    0.0000 C   0  0  0  0  0  0  0  0  0  0  0  0
    2.0000    1.7758    0.0000 C   0  0  0  0  0  0  0  0  0  0  0  0
    5.0547   -0.8268    0.0000 H   0  0  0  0  0  0  0  0  0  0  0  0
    6.0492   -0.9313    0.0000 H   0  0  0  0  0  0  0  0  0  0  0  0
    4.9974    0.8032    0.0000 H   0  0  0  0  0  0  0  0  0  0  0  0
    4.3525    1.2716    0.0000 H   0  0  0  0  0  0  0  0  0  0  0  0
    5.9496    2.5995    0.0000 H   0  0  0  0  0  0  0  0  0  0  0  0
    5.2784    2.1118    0.0000 H   0  0  0  0  0  0  0  0  0  0  0  0
    7.4913    2.1118    0.0000 H   0  0  0  0  0  0  0  0  0  0  0  0
    6.8200    2.5995    0.0000 H   0  0  0  0  0  0  0  0  0  0  0  0
    2.1308   -1.4095    0.0000 H   0  0  0  0  0  0  0  0  0  0  0  0
    2.2680   -2.2755    0.0000 H   0  0  0  0  0  0  0  0  0  0  0  0
    3.1340   -2.1383    0.0000 H   0  0  0  0  0  0  0  0  0  0  0  0
    2.0648    2.3924    0.0000 H   0  0  0  0  0  0  0  0  0  0  0  0
    1.3834    1.8406    0.0000 H   0  0  0  0  0  0  0  0  0  0  0  0
    1.9352    1.1592    0.0000 H   0  0  0  0  0  0  0  0  0  0  0  0
  1  2  1  0  0  0  0
  1 12  1  0  0  0  0
  2  3  1  0  0  0  0
  2  4  2  0  0  0  0
  2  9  1  0  0  0  0
  3 13  1  0  0  0  0
  5 14  1  0  0  0  0
  5 16  1  0  0  0  0
  6 15  1  0  0  0  0
  6 17  1  0  0  0  0
  7 14  2  0  0  0  0
  8 15  2  0  0  0  0
 10  9  1  6  0  0  0
  9 19  1  0  0  0  0
 10 11  1  0  0  0  0
 10 14  1  0  0  0  0
 10 18  1  0  0  0  0
 11 15  1  0  0  0  0
 11 20  1  0  0  0  0
 11 21  1  0  0  0  0
 12 13  1  0  0  0  0
 12 22  1  0  0  0  0
 12 23  1  0  0  0  0
 13 24  1  0  0  0  0
 13 25  1  0  0  0  0
 16 26  1  0  0  0  0
 16 27  1  0  0  0  0
 16 28  1  0  0  0  0
 17 29  1  0  0  0  0
 17 30  1  0  0  0  0
 17 31  1  0  0  0  0
M  END
> <PUBCHEM_COMPOUND_CID>
11140591

> <PUBCHEM_COMPOUND_CANONICALIZED>
1

> <PUBCHEM_CACTVS_COMPLEXITY>
349

> <PUBCHEM_CACTVS_HBOND_ACCEPTOR>
8

> <PUBCHEM_CACTVS_HBOND_DONOR>
1

> <PUBCHEM_CACTVS_ROTATABLE_BOND>
7

> <PUBCHEM_CACTVS_SUBSKEYS>
AAADccByOAJAAAAAAAAAAAAAAAAAASAAAAAAAAAAAAAAAAAAAAAAHgQQgCAACCjlwAaCCABABRAIQACQCIAAAAAAAAAAAIGAAAACABgAAAABAAAGEAAAAABDAAAAAAAAAAAAAAAAAAAAAAAAAAAAAAAAAA==

> <PUBCHEM_IUPAC_OPENEYE_NAME>
dimethyl (2S)-2-[(2-oxo-1,3,2lambda5-oxathiaphospholan-2-yl)amino]butanedioate

> <PUBCHEM_IUPAC_CAS_NAME>
(2S)-2-[(2-oxo-1,3,2lambda5-oxathiaphospholan-2-yl)amino]butanedioic acid dimethyl ester

> <PUBCHEM_IUPAC_NAME_MARKUP>
dimethyl (2<I>S</I>)-2-[(2-oxo-1,3,2&lambda;<SUP>5</SUP>-oxathiaphospholan-2-yl)amino]butanedioate

> <PUBCHEM_IUPAC_NAME>
dimethyl (2S)-2-[(2-oxo-1,3,2lambda5-oxathiaphospholan-2-yl)amino]butanedioate

> <PUBCHEM_IUPAC_SYSTEMATIC_NAME>
dimethyl (2S)-2-[(2-oxidanylidene-1,3,2lambda5-oxathiaphospholan-2-yl)amino]butanedioate

> <PUBCHEM_IUPAC_TRADITIONAL_NAME>
(2S)-2-[(2-keto-1,3,2lambda5-oxathiaphospholan-2-yl)amino]succinic acid dimethyl ester

> <PUBCHEM_IUPAC_INCHI>
InChI=1S/C8H14NO6PS/c1-13-7(10)5-6(8(11)14-2)9-16(12)15-3-4-17-16/h6H,3-5H2,1-2H3,(H,9,12)/t6-,16?/m0/s1

> <PUBCHEM_IUPAC_INCHIKEY>
JMNXIEIVBUPRKE-AIUXZDRISA-N

> <PUBCHEM_XLOGP3_AA>
-0.3

> <PUBCHEM_EXACT_MASS>
283.02794534

> <PUBCHEM_MOLECULAR_FORMULA>
C8H14NO6PS

> <PUBCHEM_MOLECULAR_WEIGHT>
283.24

> <PUBCHEM_OPENEYE_CAN_SMILES>
COC(=O)CC(C(=O)OC)NP1(=O)OCCS1

> <PUBCHEM_OPENEYE_ISO_SMILES>
COC(=O)C[C@@H](C(=O)OC)NP1(=O)OCCS1

> <PUBCHEM_CACTVS_TPSA>
116

> <PUBCHEM_MONOISOTOPIC_WEIGHT>
283.02794534

> <PUBCHEM_TOTAL_CHARGE>
0

> <PUBCHEM_HEAVY_ATOM_COUNT>
17

> <PUBCHEM_ATOM_DEF_STEREO_COUNT>
1

> <PUBCHEM_ATOM_UDEF_STEREO_COUNT>
1

> <PUBCHEM_BOND_DEF_STEREO_COUNT>
0

> <PUBCHEM_BOND_UDEF_STEREO_COUNT>
0

> <PUBCHEM_ISOTOPIC_ATOM_COUNT>
0

> <PUBCHEM_COMPONENT_COUNT>
1

> <PUBCHEM_CACTVS_TAUTO_COUNT>
-1

> <PUBCHEM_COORDINATE_TYPE>
1
5
255

> <PUBCHEM_BONDANNOTATIONS>
2  9  3
10  9  6

$$$$
