 
  -OEChem-10192103582D

 64 64  0     1  0  0  0  0  0999 V2000
    5.1350   -2.8585    0.0000 P   0  0  0  0  0  0  0  0  0  0  0  0
    6.0010    1.6415    0.0000 O   0  0  0  0  0  0  0  0  0  0  0  0
    3.4030   -0.8585    0.0000 O   0  0  0  0  0  0  0  0  0  0  0  0
    4.2690   -3.3585    0.0000 O   0  0  0  0  0  0  0  0  0  0  0  0
    5.6350   -3.7245    0.0000 O   0  0  0  0  0  0  0  0  0  0  0  0
    4.6350   -1.9925    0.0000 O   0  0  0  0  0  0  0  0  0  0  0  0
    8.5991    0.1415    0.0000 O   0  0  0  0  0  0  0  0  0  0  0  0
   11.1972   -1.3585    0.0000 O   0  0  0  0  0  0  0  0  0  0  0  0
    6.0010   -1.3585    0.0000 N   0  0  3  0  0  0  0  0  0  0  0  0
    2.5369    3.6415    0.0000 N   0  0  0  0  0  0  0  0  0  0  0  0
    5.1350    0.1415    0.0000 C   0  0  3  0  0  0  0  0  0  0  0  0
    5.1350   -0.8585    0.0000 C   0  0  3  0  0  0  0  0  0  0  0  0
    4.2690    0.6415    0.0000 C   0  0  0  0  0  0  0  0  0  0  0  0
    6.0010    0.6415    0.0000 C   0  0  0  0  0  0  0  0  0  0  0  0
    4.2690   -1.3585    0.0000 C   0  0  0  0  0  0  0  0  0  0  0  0
    4.2690    1.6415    0.0000 C   0  0  0  0  0  0  0  0  0  0  0  0
    6.8671   -0.8585    0.0000 C   0  0  0  0  0  0  0  0  0  0  0  0
    6.0010   -2.3585    0.0000 C   0  0  0  0  0  0  0  0  0  0  0  0
    3.4030    2.1415    0.0000 C   0  0  0  0  0  0  0  0  0  0  0  0
    7.7331   -1.3585    0.0000 C   0  0  0  0  0  0  0  0  0  0  0  0
    3.4030    3.1415    0.0000 C   0  0  0  0  0  0  0  0  0  0  0  0
    8.5991   -0.8585    0.0000 C   0  0  0  0  0  0  0  0  0  0  0  0
    7.7331   -2.3585    0.0000 C   0  0  0  0  0  0  0  0  0  0  0  0
    9.4651   -1.3585    0.0000 C   0  0  0  0  0  0  0  0  0  0  0  0
    8.5991   -2.8585    0.0000 C   0  0  0  0  0  0  0  0  0  0  0  0
    9.4651   -2.3585    0.0000 C   0  0  0  0  0  0  0  0  0  0  0  0
   10.3312   -0.8585    0.0000 C   0  0  0  0  0  0  0  0  0  0  0  0
    9.4651    0.6415    0.0000 C   0  0  0  0  0  0  0  0  0  0  0  0
    9.4651    1.6415    0.0000 C   0  0  0  0  0  0  0  0  0  0  0  0
    5.1350    0.7615    0.0000 H   0  0  0  0  0  0  0  0  0  0  0  0
    5.1350   -1.4785    0.0000 H   0  0  0  0  0  0  0  0  0  0  0  0
    3.6584    0.7491    0.0000 H   0  0  0  0  0  0  0  0  0  0  0  0
    4.0569    0.0589    0.0000 H   0  0  0  0  0  0  0  0  0  0  0  0
    6.2131    0.0589    0.0000 H   0  0  0  0  0  0  0  0  0  0  0  0
    6.6116    0.7491    0.0000 H   0  0  0  0  0  0  0  0  0  0  0  0
    3.8705   -1.8335    0.0000 H   0  0  0  0  0  0  0  0  0  0  0  0
    4.6675   -1.8335    0.0000 H   0  0  0  0  0  0  0  0  0  0  0  0
    4.8796    1.5338    0.0000 H   0  0  0  0  0  0  0  0  0  0  0  0
    4.4810    2.2241    0.0000 H   0  0  0  0  0  0  0  0  0  0  0  0
    7.2656   -0.3836    0.0000 H   0  0  0  0  0  0  0  0  0  0  0  0
    6.4685   -0.3836    0.0000 H   0  0  0  0  0  0  0  0  0  0  0  0
    6.2131   -2.9411    0.0000 H   0  0  0  0  0  0  0  0  0  0  0  0
    6.6116   -2.2509    0.0000 H   0  0  0  0  0  0  0  0  0  0  0  0
    2.7924    2.2491    0.0000 H   0  0  0  0  0  0  0  0  0  0  0  0
    3.1909    1.5589    0.0000 H   0  0  0  0  0  0  0  0  0  0  0  0
    4.0135    3.0338    0.0000 H   0  0  0  0  0  0  0  0  0  0  0  0
    3.6150    3.7241    0.0000 H   0  0  0  0  0  0  0  0  0  0  0  0
    5.4641    1.9515    0.0000 H   0  0  0  0  0  0  0  0  0  0  0  0
    2.8660   -1.1685    0.0000 H   0  0  0  0  0  0  0  0  0  0  0  0
    7.1962   -2.6685    0.0000 H   0  0  0  0  0  0  0  0  0  0  0  0
    8.5991   -3.4785    0.0000 H   0  0  0  0  0  0  0  0  0  0  0  0
    4.2690   -3.9785    0.0000 H   0  0  0  0  0  0  0  0  0  0  0  0
    5.3250   -4.2615    0.0000 H   0  0  0  0  0  0  0  0  0  0  0  0
   10.0021   -2.6685    0.0000 H   0  0  0  0  0  0  0  0  0  0  0  0
    2.5369    4.2615    0.0000 H   0  0  0  0  0  0  0  0  0  0  0  0
    2.0000    3.3315    0.0000 H   0  0  0  0  0  0  0  0  0  0  0  0
   10.7297   -0.3836    0.0000 H   0  0  0  0  0  0  0  0  0  0  0  0
    9.9326   -0.3836    0.0000 H   0  0  0  0  0  0  0  0  0  0  0  0
    9.6772    0.0589    0.0000 H   0  0  0  0  0  0  0  0  0  0  0  0
   10.0757    0.7491    0.0000 H   0  0  0  0  0  0  0  0  0  0  0  0
   10.0851    1.6415    0.0000 H   0  0  0  0  0  0  0  0  0  0  0  0
    9.4651    2.2615    0.0000 H   0  0  0  0  0  0  0  0  0  0  0  0
    8.8451    1.6415    0.0000 H   0  0  0  0  0  0  0  0  0  0  0  0
   11.7341   -1.0485    0.0000 H   0  0  0  0  0  0  0  0  0  0  0  0
  1  4  1  0  0  0  0
  1  5  1  0  0  0  0
  1  6  2  0  0  0  0
  1 18  1  0  0  0  0
  2 14  1  0  0  0  0
  2 48  1  0  0  0  0
  3 15  1  0  0  0  0
  3 49  1  0  0  0  0
  4 52  1  0  0  0  0
  5 53  1  0  0  0  0
  7 22  1  0  0  0  0
  7 28  1  0  0  0  0
  8 27  1  0  0  0  0
  8 64  1  0  0  0  0
  9 12  1  0  0  0  0
  9 17  1  0  0  0  0
  9 18  1  0  0  0  0
 10 21  1  0  0  0  0
 10 55  1  0  0  0  0
 10 56  1  0  0  0  0
 11 12  1  0  0  0  0
 11 13  1  0  0  0  0
 11 14  1  0  0  0  0
 11 30  1  0  0  0  0
 12 15  1  0  0  0  0
 12 31  1  0  0  0  0
 13 16  1  0  0  0  0
 13 32  1  0  0  0  0
 13 33  1  0  0  0  0
 14 34  1  0  0  0  0
 14 35  1  0  0  0  0
 15 36  1  0  0  0  0
 15 37  1  0  0  0  0
 16 19  1  0  0  0  0
 16 38  1  0  0  0  0
 16 39  1  0  0  0  0
 17 20  1  0  0  0  0
 17 40  1  0  0  0  0
 17 41  1  0  0  0  0
 18 42  1  0  0  0  0
 18 43  1  0  0  0  0
 19 21  1  0  0  0  0
 19 44  1  0  0  0  0
 19 45  1  0  0  0  0
 20 22  2  0  0  0  0
 20 23  1  0  0  0  0
 21 46  1  0  0  0  0
 21 47  1  0  0  0  0
 22 24  1  0  0  0  0
 23 25  2  0  0  0  0
 23 50  1  0  0  0  0
 24 26  2  0  0  0  0
 24 27  1  0  0  0  0
 25 26  1  0  0  0  0
 25 51  1  0  0  0  0
 26 54  1  0  0  0  0
 27 57  1  0  0  0  0
 27 58  1  0  0  0  0
 28 29  1  0  0  0  0
 28 59  1  0  0  0  0
 28 60  1  0  0  0  0
 29 61  1  0  0  0  0
 29 62  1  0  0  0  0
 29 63  1  0  0  0  0
M  END
> <PUBCHEM_COMPOUND_CID>
90089257

> <PUBCHEM_COMPOUND_CANONICALIZED>
1

> <PUBCHEM_CACTVS_COMPLEXITY>
480

> <PUBCHEM_CACTVS_HBOND_ACCEPTOR>
9

> <PUBCHEM_CACTVS_HBOND_DONOR>
6

> <PUBCHEM_CACTVS_ROTATABLE_BOND>
15

> <PUBCHEM_CACTVS_SUBSKEYS>
AAADcfB7OAIAAAAAAAAAAAAAAAAAAAAAAAAwAAAAAAAAAAABAAAAHggQCCAADSzhmAYyBoNABhCAQiBCAICCCAAgIAAIiIAMDIgONyKEsRuGeCjn0BGYuAfQ0GIOAAACAAAIAAAAAAQAABAAAAAAAAAAAA==

> <PUBCHEM_IUPAC_OPENEYE_NAME>
[[6-amino-1,2-bis(hydroxymethyl)hexyl]-[[2-ethoxy-3-(hydroxymethyl)phenyl]methyl]amino]methylphosphonic acid

> <PUBCHEM_IUPAC_CAS_NAME>
[[7-amino-1-hydroxy-3-(hydroxymethyl)heptan-2-yl]-[[2-ethoxy-3-(hydroxymethyl)phenyl]methyl]amino]methylphosphonic acid

> <PUBCHEM_IUPAC_NAME_MARKUP>
[[7-amino-1-hydroxy-3-(hydroxymethyl)heptan-2-yl]-[[2-ethoxy-3-(hydroxymethyl)phenyl]methyl]amino]methylphosphonic acid

> <PUBCHEM_IUPAC_NAME>
[[7-amino-1-hydroxy-3-(hydroxymethyl)heptan-2-yl]-[[2-ethoxy-3-(hydroxymethyl)phenyl]methyl]amino]methylphosphonic acid

> <PUBCHEM_IUPAC_SYSTEMATIC_NAME>
[[7-azanyl-3-(hydroxymethyl)-1-oxidanyl-heptan-2-yl]-[[2-ethoxy-3-(hydroxymethyl)phenyl]methyl]amino]methylphosphonic acid

> <PUBCHEM_IUPAC_TRADITIONAL_NAME>
[(6-amino-1,2-dimethylol-hexyl)-(2-ethoxy-3-methylol-benzyl)amino]methylphosphonic acid

> <PUBCHEM_IUPAC_INCHI>
InChI=1S/C19H35N2O7P/c1-2-28-19-15(7-5-8-17(19)12-23)10-21(14-29(25,26)27)18(13-24)16(11-22)6-3-4-9-20/h5,7-8,16,18,22-24H,2-4,6,9-14,20H2,1H3,(H2,25,26,27)

> <PUBCHEM_IUPAC_INCHIKEY>
TTZNKESJHRAAHD-UHFFFAOYSA-N

> <PUBCHEM_XLOGP3_AA>
-3.7

> <PUBCHEM_EXACT_MASS>
434.21818846

> <PUBCHEM_MOLECULAR_FORMULA>
C19H35N2O7P

> <PUBCHEM_MOLECULAR_WEIGHT>
434.5

> <PUBCHEM_OPENEYE_CAN_SMILES>
CCOC1=C(C=CC=C1CO)CN(CP(=O)(O)O)C(CO)C(CCCCN)CO

> <PUBCHEM_OPENEYE_ISO_SMILES>
CCOC1=C(C=CC=C1CO)CN(CP(=O)(O)O)C(CO)C(CCCCN)CO

> <PUBCHEM_CACTVS_TPSA>
157

> <PUBCHEM_MONOISOTOPIC_WEIGHT>
434.21818846

> <PUBCHEM_TOTAL_CHARGE>
0

> <PUBCHEM_HEAVY_ATOM_COUNT>
29

> <PUBCHEM_ATOM_DEF_STEREO_COUNT>
0

> <PUBCHEM_ATOM_UDEF_STEREO_COUNT>
2

> <PUBCHEM_BOND_DEF_STEREO_COUNT>
0

> <PUBCHEM_BOND_UDEF_STEREO_COUNT>
0

> <PUBCHEM_ISOTOPIC_ATOM_COUNT>
0

> <PUBCHEM_COMPONENT_COUNT>
1

> <PUBCHEM_CACTVS_TAUTO_COUNT>
-1

> <PUBCHEM_COORDINATE_TYPE>
1
5
255

> <PUBCHEM_BONDANNOTATIONS>
11  13  3
12  15  3
20  22  8
20  23  8
22  24  8
23  25  8
24  26  8
25  26  8

$$$$
