 
  -OEChem-10192104162D

 36 36  0     0  0  0  0  0  0999 V2000
    2.8660    0.3450    0.0000 S   0  0  0  0  0  0  0  0  0  0  0  0
    3.7320   -1.1550    0.0000 S   0  0  0  0  0  0  0  0  0  0  0  0
    6.3301    1.3450    0.0000 S   0  0  0  0  0  0  0  0  0  0  0  0
    2.3660   -0.5210    0.0000 O   0  0  0  0  0  0  0  0  0  0  0  0
    3.3660    1.2110    0.0000 O   0  0  0  0  0  0  0  0  0  0  0  0
    2.7320   -1.1550    0.0000 O   0  0  0  0  0  0  0  0  0  0  0  0
    4.7320   -1.1550    0.0000 O   0  0  0  0  0  0  0  0  0  0  0  0
    6.3301    2.3450    0.0000 O   0  0  0  0  0  0  0  0  0  0  0  0
    7.3301    1.3450    0.0000 O   0  0  0  0  0  0  0  0  0  0  0  0
    5.3301    1.3450    0.0000 O   0  0  0  0  0  0  0  0  0  0  0  0
    3.7320   -0.1550    0.0000 C   0  0  0  0  0  0  0  0  0  0  0  0
    4.5981    0.3450    0.0000 C   0  0  0  0  0  0  0  0  0  0  0  0
    5.4641   -0.1550    0.0000 C   0  0  0  0  0  0  0  0  0  0  0  0
    6.3301    0.3450    0.0000 C   0  0  0  0  0  0  0  0  0  0  0  0
    5.4641   -1.1550    0.0000 C   0  0  0  0  0  0  0  0  0  0  0  0
    2.0000    0.8450    0.0000 C   0  0  0  0  0  0  0  0  0  0  0  0
    3.7320   -2.1550    0.0000 C   0  0  0  0  0  0  0  0  0  0  0  0
    7.1962   -0.1550    0.0000 C   0  0  0  0  0  0  0  0  0  0  0  0
    6.3301   -1.6550    0.0000 C   0  0  0  0  0  0  0  0  0  0  0  0
    7.1962   -1.1550    0.0000 C   0  0  0  0  0  0  0  0  0  0  0  0
    2.0000    1.8450    0.0000 C   0  0  0  0  0  0  0  0  0  0  0  0
    2.8660   -2.6550    0.0000 C   0  0  0  0  0  0  0  0  0  0  0  0
    3.7320    0.4650    0.0000 H   0  0  0  0  0  0  0  0  0  0  0  0
    4.9966    0.8199    0.0000 H   0  0  0  0  0  0  0  0  0  0  0  0
    4.1996    0.8199    0.0000 H   0  0  0  0  0  0  0  0  0  0  0  0
    4.9272   -1.4650    0.0000 H   0  0  0  0  0  0  0  0  0  0  0  0
    1.4631    0.5350    0.0000 H   0  0  0  0  0  0  0  0  0  0  0  0
    4.2690   -2.4650    0.0000 H   0  0  0  0  0  0  0  0  0  0  0  0
    7.7331    0.1550    0.0000 H   0  0  0  0  0  0  0  0  0  0  0  0
    6.3301   -2.2750    0.0000 H   0  0  0  0  0  0  0  0  0  0  0  0
    7.7331   -1.4650    0.0000 H   0  0  0  0  0  0  0  0  0  0  0  0
    2.5369    2.1550    0.0000 H   0  0  0  0  0  0  0  0  0  0  0  0
    1.4631    2.1550    0.0000 H   0  0  0  0  0  0  0  0  0  0  0  0
    2.3291   -2.3450    0.0000 H   0  0  0  0  0  0  0  0  0  0  0  0
    2.8660   -3.2750    0.0000 H   0  0  0  0  0  0  0  0  0  0  0  0
    6.8671    2.6550    0.0000 H   0  0  0  0  0  0  0  0  0  0  0  0
  1  4  2  0  0  0  0
  1  5  2  0  0  0  0
  1 11  1  0  0  0  0
  1 16  1  0  0  0  0
  2  6  2  0  0  0  0
  2  7  2  0  0  0  0
  2 11  1  0  0  0  0
  2 17  1  0  0  0  0
  3  8  1  0  0  0  0
  3  9  2  0  0  0  0
  3 10  2  0  0  0  0
  3 14  1  0  0  0  0
  8 36  1  0  0  0  0
 11 12  1  0  0  0  0
 11 23  1  0  0  0  0
 12 13  1  0  0  0  0
 12 24  1  0  0  0  0
 12 25  1  0  0  0  0
 13 14  1  0  0  0  0
 13 15  2  0  0  0  0
 14 18  2  0  0  0  0
 15 19  1  0  0  0  0
 15 26  1  0  0  0  0
 16 21  2  0  0  0  0
 16 27  1  0  0  0  0
 17 22  2  0  0  0  0
 17 28  1  0  0  0  0
 18 20  1  0  0  0  0
 18 29  1  0  0  0  0
 19 20  2  0  0  0  0
 19 30  1  0  0  0  0
 20 31  1  0  0  0  0
 21 32  1  0  0  0  0
 21 33  1  0  0  0  0
 22 34  1  0  0  0  0
 22 35  1  0  0  0  0
M  END
> <PUBCHEM_COMPOUND_CID>
87223401

> <PUBCHEM_COMPOUND_CANONICALIZED>
1

> <PUBCHEM_CACTVS_COMPLEXITY>
677

> <PUBCHEM_CACTVS_HBOND_ACCEPTOR>
7

> <PUBCHEM_CACTVS_HBOND_DONOR>
1

> <PUBCHEM_CACTVS_ROTATABLE_BOND>
7

> <PUBCHEM_CACTVS_SUBSKEYS>
AAADccBwOABgAAAAAAAAAAAAAAAAAAAAAAAwAAAAAAAAAAABAAAAGAQACAAADACEWACwAYAAAIqAAiBCAHBCAUAgABAIiBgAAIgIICKgERCAIAAggAAIiAcAgIAOAAAAAAAEAAAAAAAAAAgAAAAAAAAAAA==

> <PUBCHEM_IUPAC_OPENEYE_NAME>
2-[2,2-bis(vinylsulfonyl)ethyl]benzenesulfonic acid

> <PUBCHEM_IUPAC_CAS_NAME>
2-[2,2-bis(ethenylsulfonyl)ethyl]benzenesulfonic acid

> <PUBCHEM_IUPAC_NAME_MARKUP>
2-[2,2-bis(ethenylsulfonyl)ethyl]benzenesulfonic acid

> <PUBCHEM_IUPAC_NAME>
2-[2,2-bis(ethenylsulfonyl)ethyl]benzenesulfonic acid

> <PUBCHEM_IUPAC_SYSTEMATIC_NAME>
2-[2,2-bis(ethenylsulfonyl)ethyl]benzenesulfonic acid

> <PUBCHEM_IUPAC_TRADITIONAL_NAME>
2-[2,2-bis(vinylsulfonyl)ethyl]besylic acid

> <PUBCHEM_IUPAC_INCHI>
InChI=1S/C12H14O7S3/c1-3-20(13,14)12(21(15,16)4-2)9-10-7-5-6-8-11(10)22(17,18)19/h3-8,12H,1-2,9H2,(H,17,18,19)

> <PUBCHEM_IUPAC_INCHIKEY>
JRENGEISCCWYMB-UHFFFAOYSA-N

> <PUBCHEM_XLOGP3_AA>
0.8

> <PUBCHEM_EXACT_MASS>
365.99016630

> <PUBCHEM_MOLECULAR_FORMULA>
C12H14O7S3

> <PUBCHEM_MOLECULAR_WEIGHT>
366.4

> <PUBCHEM_OPENEYE_CAN_SMILES>
C=CS(=O)(=O)C(CC1=CC=CC=C1S(=O)(=O)O)S(=O)(=O)C=C

> <PUBCHEM_OPENEYE_ISO_SMILES>
C=CS(=O)(=O)C(CC1=CC=CC=C1S(=O)(=O)O)S(=O)(=O)C=C

> <PUBCHEM_CACTVS_TPSA>
148

> <PUBCHEM_MONOISOTOPIC_WEIGHT>
365.99016630

> <PUBCHEM_TOTAL_CHARGE>
0

> <PUBCHEM_HEAVY_ATOM_COUNT>
22

> <PUBCHEM_ATOM_DEF_STEREO_COUNT>
0

> <PUBCHEM_ATOM_UDEF_STEREO_COUNT>
0

> <PUBCHEM_BOND_DEF_STEREO_COUNT>
0

> <PUBCHEM_BOND_UDEF_STEREO_COUNT>
0

> <PUBCHEM_ISOTOPIC_ATOM_COUNT>
0

> <PUBCHEM_COMPONENT_COUNT>
1

> <PUBCHEM_CACTVS_TAUTO_COUNT>
-1

> <PUBCHEM_COORDINATE_TYPE>
1
5
255

> <PUBCHEM_BONDANNOTATIONS>
13  14  8
13  15  8
14  18  8
15  19  8
18  20  8
19  20  8

$$$$
