 
  -OEChem-10192104352D

 21 21  0     0  0  0  0  0  0999 V2000
    6.3461    0.4653    0.0000 O   0  0  0  0  0  0  0  0  0  0  0  0
    5.1213    1.6901    0.0000 O   0  0  0  0  0  0  0  0  0  0  0  0
    3.6730   -0.9830    0.0000 C   0  0  0  0  0  0  0  0  0  0  0  0
    4.6730    0.0170    0.0000 C   0  0  0  0  0  0  0  0  0  0  0  0
    3.6730    0.0170    0.0000 C   0  0  0  0  0  0  0  0  0  0  0  0
    4.6730   -0.9830    0.0000 C   0  0  0  0  0  0  0  0  0  0  0  0
    2.9659   -1.6901    0.0000 C   0  0  0  0  0  0  0  0  0  0  0  0
    5.3801    0.7241    0.0000 C   0  0  0  0  0  0  0  0  0  0  0  0
    2.0000   -1.4312    0.0000 C   0  0  0  0  0  0  0  0  0  0  0  0
    3.1002   -0.7457    0.0000 H   0  0  0  0  0  0  0  0  0  0  0  0
    5.2458   -0.2202    0.0000 H   0  0  0  0  0  0  0  0  0  0  0  0
    3.6730    0.6370    0.0000 H   0  0  0  0  0  0  0  0  0  0  0  0
    3.0530    0.0170    0.0000 H   0  0  0  0  0  0  0  0  0  0  0  0
    4.6730   -1.6030    0.0000 H   0  0  0  0  0  0  0  0  0  0  0  0
    5.2930   -0.9830    0.0000 H   0  0  0  0  0  0  0  0  0  0  0  0
    2.7039   -2.2520    0.0000 H   0  0  0  0  0  0  0  0  0  0  0  0
    3.4738   -2.0457    0.0000 H   0  0  0  0  0  0  0  0  0  0  0  0
    2.1605   -0.8324    0.0000 H   0  0  0  0  0  0  0  0  0  0  0  0
    1.4011   -1.2708    0.0000 H   0  0  0  0  0  0  0  0  0  0  0  0
    1.8395   -2.0301    0.0000 H   0  0  0  0  0  0  0  0  0  0  0  0
    6.7845    0.9037    0.0000 H   0  0  0  0  0  0  0  0  0  0  0  0
  1  8  1  0  0  0  0
  1 21  1  0  0  0  0
  2  8  2  0  0  0  0
  3  5  1  0  0  0  0
  3  6  1  0  0  0  0
  3  7  1  0  0  0  0
  3 10  1  0  0  0  0
  4  5  1  0  0  0  0
  4  6  1  0  0  0  0
  4  8  1  0  0  0  0
  4 11  1  0  0  0  0
  5 12  1  0  0  0  0
  5 13  1  0  0  0  0
  6 14  1  0  0  0  0
  6 15  1  0  0  0  0
  7  9  1  0  0  0  0
  7 16  1  0  0  0  0
  7 17  1  0  0  0  0
  9 18  1  0  0  0  0
  9 19  1  0  0  0  0
  9 20  1  0  0  0  0
M  END
> <PUBCHEM_COMPOUND_CID>
47796

> <PUBCHEM_COMPOUND_CANONICALIZED>
1

> <PUBCHEM_CACTVS_COMPLEXITY>
114

> <PUBCHEM_CACTVS_HBOND_ACCEPTOR>
2

> <PUBCHEM_CACTVS_HBOND_DONOR>
1

> <PUBCHEM_CACTVS_ROTATABLE_BOND>
2

> <PUBCHEM_CACTVS_SUBSKEYS>
AAADccBgMAAAAAAAAAAAAAAAAABgAAAAAAAAAAAAAAAAAAAAAAAAGgAACAAADQCAgAACCAAAAgAIAACQCAAAAAAAAAAAAAEAAAAAABIAAAAAQAAEAAAAAAGISAAOAAAAAAAAAAAAAAAAAAAAAAAAAAAAAA==

> <PUBCHEM_IUPAC_OPENEYE_NAME>
3-ethylcyclobutanecarboxylic acid

> <PUBCHEM_IUPAC_CAS_NAME>
3-ethyl-1-cyclobutanecarboxylic acid

> <PUBCHEM_IUPAC_NAME_MARKUP>
3-ethylcyclobutane-1-carboxylic acid

> <PUBCHEM_IUPAC_NAME>
3-ethylcyclobutane-1-carboxylic acid

> <PUBCHEM_IUPAC_SYSTEMATIC_NAME>
3-ethylcyclobutane-1-carboxylic acid

> <PUBCHEM_IUPAC_TRADITIONAL_NAME>
3-ethylcyclobutanecarboxylic acid

> <PUBCHEM_IUPAC_INCHI>
InChI=1S/C7H12O2/c1-2-5-3-6(4-5)7(8)9/h5-6H,2-4H2,1H3,(H,8,9)

> <PUBCHEM_IUPAC_INCHIKEY>
KHJZSHCMTBYQFG-UHFFFAOYSA-N

> <PUBCHEM_XLOGP3_AA>
1.6

> <PUBCHEM_EXACT_MASS>
128.083729621

> <PUBCHEM_MOLECULAR_FORMULA>
C7H12O2

> <PUBCHEM_MOLECULAR_WEIGHT>
128.17

> <PUBCHEM_OPENEYE_CAN_SMILES>
CCC1CC(C1)C(=O)O

> <PUBCHEM_OPENEYE_ISO_SMILES>
CCC1CC(C1)C(=O)O

> <PUBCHEM_CACTVS_TPSA>
37.3

> <PUBCHEM_MONOISOTOPIC_WEIGHT>
128.083729621

> <PUBCHEM_TOTAL_CHARGE>
0

> <PUBCHEM_HEAVY_ATOM_COUNT>
9

> <PUBCHEM_ATOM_DEF_STEREO_COUNT>
0

> <PUBCHEM_ATOM_UDEF_STEREO_COUNT>
0

> <PUBCHEM_BOND_DEF_STEREO_COUNT>
0

> <PUBCHEM_BOND_UDEF_STEREO_COUNT>
0

> <PUBCHEM_ISOTOPIC_ATOM_COUNT>
0

> <PUBCHEM_COMPONENT_COUNT>
1

> <PUBCHEM_CACTVS_TAUTO_COUNT>
1

> <PUBCHEM_COORDINATE_TYPE>
1
5
255

$$$$
