 
  -OEChem-10192103342D

 42 44  0     1  0  0  0  0  0999 V2000
    4.5981   -1.2836    0.0000 O   0  0  0  0  0  0  0  0  0  0  0  0
    6.3301   -1.2836    0.0000 O   0  0  0  0  0  0  0  0  0  0  0  0
    4.5981   -4.2836    0.0000 O   0  0  0  0  0  0  0  0  0  0  0  0
    6.3301   -3.2836    0.0000 O   0  0  0  0  0  0  0  0  0  0  0  0
    2.8660   -3.2836    0.0000 O   0  0  0  0  0  0  0  0  0  0  0  0
    2.8660   -0.2836    0.0000 O   0  0  0  0  0  0  0  0  0  0  0  0
    2.0000   -1.7836    0.0000 O   0  0  0  0  0  0  0  0  0  0  0  0
    8.9282    1.2164    0.0000 O   0  0  0  0  0  0  0  0  0  0  0  0
    9.7942   -0.2836    0.0000 O   0  0  0  0  0  0  0  0  0  0  0  0
    7.1840    4.2857    0.0000 O   0  0  0  0  0  0  0  0  0  0  0  0
    4.5981   -3.2836    0.0000 C   0  0  2  0  0  0  0  0  0  0  0  0
    5.4641   -2.7836    0.0000 C   0  0  2  0  0  0  0  0  0  0  0  0
    3.7320   -2.7836    0.0000 C   0  0  1  0  0  0  0  0  0  0  0  0
    5.4641   -1.7836    0.0000 C   0  0  1  0  0  0  0  0  0  0  0  0
    3.7320   -1.7836    0.0000 C   0  0  1  0  0  0  0  0  0  0  0  0
    2.8660   -1.2836    0.0000 C   0  0  0  0  0  0  0  0  0  0  0  0
    6.3301   -0.2836    0.0000 C   0  0  0  0  0  0  0  0  0  0  0  0
    7.1962    0.2164    0.0000 C   0  0  0  0  0  0  0  0  0  0  0  0
    7.1962    1.2164    0.0000 C   0  0  0  0  0  0  0  0  0  0  0  0
    8.0622   -0.2836    0.0000 C   0  0  0  0  0  0  0  0  0  0  0  0
    8.0622    1.7164    0.0000 C   0  0  0  0  0  0  0  0  0  0  0  0
    6.2862    1.7232    0.0000 C   0  0  0  0  0  0  0  0  0  0  0  0
    8.9282    0.2164    0.0000 C   0  0  0  0  0  0  0  0  0  0  0  0
    8.0782    2.7579    0.0000 C   0  0  0  0  0  0  0  0  0  0  0  0
    6.2781    2.7648    0.0000 C   0  0  0  0  0  0  0  0  0  0  0  0
    7.1802    3.2857    0.0000 C   0  0  0  0  0  0  0  0  0  0  0  0
    4.0611   -3.5936    0.0000 H   0  0  0  0  0  0  0  0  0  0  0  0
    5.4641   -3.4036    0.0000 H   0  0  0  0  0  0  0  0  0  0  0  0
    3.1951   -2.4736    0.0000 H   0  0  0  0  0  0  0  0  0  0  0  0
    5.4641   -1.1636    0.0000 H   0  0  0  0  0  0  0  0  0  0  0  0
    3.7320   -1.1636    0.0000 H   0  0  0  0  0  0  0  0  0  0  0  0
    5.1350   -4.5936    0.0000 H   0  0  0  0  0  0  0  0  0  0  0  0
    6.8671   -2.9736    0.0000 H   0  0  0  0  0  0  0  0  0  0  0  0
    2.8660   -3.9036    0.0000 H   0  0  0  0  0  0  0  0  0  0  0  0
    6.1181    0.2990    0.0000 H   0  0  0  0  0  0  0  0  0  0  0  0
    5.7196   -0.3913    0.0000 H   0  0  0  0  0  0  0  0  0  0  0  0
    8.0622   -0.9036    0.0000 H   0  0  0  0  0  0  0  0  0  0  0  0
    2.3291    0.0264    0.0000 H   0  0  0  0  0  0  0  0  0  0  0  0
    5.7528    1.4071    0.0000 H   0  0  0  0  0  0  0  0  0  0  0  0
    8.6187    3.0617    0.0000 H   0  0  0  0  0  0  0  0  0  0  0  0
    5.7400    3.0728    0.0000 H   0  0  0  0  0  0  0  0  0  0  0  0
    7.7222    4.5936    0.0000 H   0  0  0  0  0  0  0  0  0  0  0  0
  1 14  1  0  0  0  0
  1 15  1  0  0  0  0
 14  2  1  1  0  0  0
  2 17  1  0  0  0  0
 11  3  1  1  0  0  0
  3 32  1  0  0  0  0
 12  4  1  6  0  0  0
  4 33  1  0  0  0  0
 13  5  1  6  0  0  0
  5 34  1  0  0  0  0
  6 16  1  0  0  0  0
  6 38  1  0  0  0  0
  7 16  2  0  0  0  0
  8 21  1  0  0  0  0
  8 23  1  0  0  0  0
  9 23  2  0  0  0  0
 10 26  1  0  0  0  0
 10 42  1  0  0  0  0
 11 12  1  0  0  0  0
 11 13  1  0  0  0  0
 11 27  1  0  0  0  0
 12 14  1  0  0  0  0
 12 28  1  0  0  0  0
 13 15  1  0  0  0  0
 13 29  1  0  0  0  0
 14 30  1  0  0  0  0
 15 16  1  1  0  0  0
 15 31  1  0  0  0  0
 17 18  1  0  0  0  0
 17 35  1  0  0  0  0
 17 36  1  0  0  0  0
 18 19  1  0  0  0  0
 18 20  2  0  0  0  0
 19 21  2  0  0  0  0
 19 22  1  0  0  0  0
 20 23  1  0  0  0  0
 20 37  1  0  0  0  0
 21 24  1  0  0  0  0
 22 25  2  0  0  0  0
 22 39  1  0  0  0  0
 24 26  2  0  0  0  0
 24 40  1  0  0  0  0
 25 26  1  0  0  0  0
 25 41  1  0  0  0  0
M  END
> <PUBCHEM_COMPOUND_CID>
44576599

> <PUBCHEM_COMPOUND_CANONICALIZED>
1

> <PUBCHEM_CACTVS_COMPLEXITY>
590

> <PUBCHEM_CACTVS_HBOND_ACCEPTOR>
10

> <PUBCHEM_CACTVS_HBOND_DONOR>
5

> <PUBCHEM_CACTVS_ROTATABLE_BOND>
4

> <PUBCHEM_CACTVS_SUBSKEYS>
AAADceB4PAAAAAAAAAAAAAAAAAAAAAAAAAA0QIAAAAAAAACBAAAAGgAACAAADBSwmAMwDoAABgCIAiDSCAICCAAgIAAIiAFGCMgdNzaGMR6ieiCl4BUPuQfK7KxOIAAACAAIAABAAAAQABAAAAAAAAAAAA==

> <PUBCHEM_IUPAC_OPENEYE_NAME>
(2S,3S,4S,5R,6R)-3,4,5-trihydroxy-6-[(7-hydroxy-2-oxo-chromen-4-yl)methoxy]tetrahydropyran-2-carboxylic acid

> <PUBCHEM_IUPAC_CAS_NAME>
(2S,3S,4S,5R,6R)-3,4,5-trihydroxy-6-[(7-hydroxy-2-oxo-1-benzopyran-4-yl)methoxy]-2-oxanecarboxylic acid

> <PUBCHEM_IUPAC_NAME_MARKUP>
(2<I>S</I>,3<I>S</I>,4<I>S</I>,5<I>R</I>,6<I>R</I>)-3,4,5-trihydroxy-6-[(7-hydroxy-2-oxochromen-4-yl)methoxy]oxane-2-carboxylic acid

> <PUBCHEM_IUPAC_NAME>
(2S,3S,4S,5R,6R)-3,4,5-trihydroxy-6-[(7-hydroxy-2-oxochromen-4-yl)methoxy]oxane-2-carboxylic acid

> <PUBCHEM_IUPAC_SYSTEMATIC_NAME>
(2S,3S,4S,5R,6R)-3,4,5-tris(oxidanyl)-6-[(7-oxidanyl-2-oxidanylidene-chromen-4-yl)methoxy]oxane-2-carboxylic acid

> <PUBCHEM_IUPAC_TRADITIONAL_NAME>
(2S,3S,4S,5R,6R)-3,4,5-trihydroxy-6-[(7-hydroxy-2-keto-chromen-4-yl)methoxy]tetrahydropyran-2-carboxylic acid

> <PUBCHEM_IUPAC_INCHI>
InChI=1S/C16H16O10/c17-7-1-2-8-6(3-10(18)25-9(8)4-7)5-24-16-13(21)11(19)12(20)14(26-16)15(22)23/h1-4,11-14,16-17,19-21H,5H2,(H,22,23)/t11-,12-,13+,14-,16+/m0/s1

> <PUBCHEM_IUPAC_INCHIKEY>
IHSDPYPXEDHVGB-JHZZJYKESA-N

> <PUBCHEM_XLOGP3_AA>
-1.1

> <PUBCHEM_EXACT_MASS>
368.07434670

> <PUBCHEM_MOLECULAR_FORMULA>
C16H16O10

> <PUBCHEM_MOLECULAR_WEIGHT>
368.29

> <PUBCHEM_OPENEYE_CAN_SMILES>
C1=CC2=C(C=C1O)OC(=O)C=C2COC3C(C(C(C(O3)C(=O)O)O)O)O

> <PUBCHEM_OPENEYE_ISO_SMILES>
C1=CC2=C(C=C1O)OC(=O)C=C2CO[C@H]3[C@@H]([C@H]([C@@H]([C@H](O3)C(=O)O)O)O)O

> <PUBCHEM_CACTVS_TPSA>
163

> <PUBCHEM_MONOISOTOPIC_WEIGHT>
368.07434670

> <PUBCHEM_TOTAL_CHARGE>
0

> <PUBCHEM_HEAVY_ATOM_COUNT>
26

> <PUBCHEM_ATOM_DEF_STEREO_COUNT>
5

> <PUBCHEM_ATOM_UDEF_STEREO_COUNT>
0

> <PUBCHEM_BOND_DEF_STEREO_COUNT>
0

> <PUBCHEM_BOND_UDEF_STEREO_COUNT>
0

> <PUBCHEM_ISOTOPIC_ATOM_COUNT>
0

> <PUBCHEM_COMPONENT_COUNT>
1

> <PUBCHEM_CACTVS_TAUTO_COUNT>
-1

> <PUBCHEM_COORDINATE_TYPE>
1
5
255

> <PUBCHEM_BONDANNOTATIONS>
15  16  5
18  19  8
18  20  8
19  21  8
19  22  8
14  2  5
20  23  8
21  24  8
22  25  8
24  26  8
25  26  8
11  3  5
12  4  6
13  5  6
8  21  8
8  23  8

$$$$
