 
  -OEChem-10192103272D

 46 49  0     1  0  0  0  0  0999 V2000
   11.1218   -0.7500    0.0000 O   0  0  0  0  0  0  0  0  0  0  0  0
    2.0000    0.7500    0.0000 O   0  0  0  0  0  0  0  0  0  0  0  0
   10.8489    1.0052    0.0000 O   0  0  0  0  0  0  0  0  0  0  0  0
    2.2729   -1.0052    0.0000 O   0  0  0  0  0  0  0  0  0  0  0  0
   10.8489   -2.5053    0.0000 O   0  0  0  0  0  0  0  0  0  0  0  0
    2.2729    2.5053    0.0000 O   0  0  0  0  0  0  0  0  0  0  0  0
    7.8600   -0.2500    0.0000 C   0  0  3  0  0  0  0  0  0  0  0  0
    5.2619    0.2500    0.0000 C   0  0  3  0  0  0  0  0  0  0  0  0
    6.9939    0.2500    0.0000 C   0  0  0  0  0  0  0  0  0  0  0  0
    6.1279   -0.2500    0.0000 C   0  0  0  0  0  0  0  0  0  0  0  0
    8.7260    0.2500    0.0000 C   0  0  0  0  0  0  0  0  0  0  0  0
    4.3958   -0.2500    0.0000 C   0  0  0  0  0  0  0  0  0  0  0  0
    9.5920   -0.2500    0.0000 C   0  0  3  0  0  0  0  0  0  0  0  0
    3.5298    0.2500    0.0000 C   0  0  3  0  0  0  0  0  0  0  0  0
    9.5920   -1.2500    0.0000 C   0  0  3  0  0  0  0  0  0  0  0  0
    3.5298    1.2500    0.0000 C   0  0  3  0  0  0  0  0  0  0  0  0
    7.8600   -1.2500    0.0000 C   0  0  0  0  0  0  0  0  0  0  0  0
    5.2619    1.2500    0.0000 C   0  0  0  0  0  0  0  0  0  0  0  0
    8.7260   -1.7500    0.0000 C   0  0  0  0  0  0  0  0  0  0  0  0
    4.3958    1.7500    0.0000 C   0  0  0  0  0  0  0  0  0  0  0  0
   10.5382    0.0547    0.0000 C   0  0  0  0  0  0  0  0  0  0  0  0
    2.5836   -0.0547    0.0000 C   0  0  0  0  0  0  0  0  0  0  0  0
   10.5382   -1.5547    0.0000 C   0  0  0  0  0  0  0  0  0  0  0  0
    2.5836    1.5547    0.0000 C   0  0  0  0  0  0  0  0  0  0  0  0
    7.8600    0.3700    0.0000 H   0  0  0  0  0  0  0  0  0  0  0  0
    5.7988    0.5600    0.0000 H   0  0  0  0  0  0  0  0  0  0  0  0
    7.3925    0.7249    0.0000 H   0  0  0  0  0  0  0  0  0  0  0  0
    6.5954    0.7249    0.0000 H   0  0  0  0  0  0  0  0  0  0  0  0
    5.7294   -0.7249    0.0000 H   0  0  0  0  0  0  0  0  0  0  0  0
    6.5264   -0.7249    0.0000 H   0  0  0  0  0  0  0  0  0  0  0  0
    9.1245    0.7249    0.0000 H   0  0  0  0  0  0  0  0  0  0  0  0
    8.3274    0.7249    0.0000 H   0  0  0  0  0  0  0  0  0  0  0  0
    3.9973   -0.7249    0.0000 H   0  0  0  0  0  0  0  0  0  0  0  0
    4.7944   -0.7249    0.0000 H   0  0  0  0  0  0  0  0  0  0  0  0
    9.6576    0.3665    0.0000 H   0  0  0  0  0  0  0  0  0  0  0  0
    3.4642   -0.3665    0.0000 H   0  0  0  0  0  0  0  0  0  0  0  0
    9.6576   -1.8665    0.0000 H   0  0  0  0  0  0  0  0  0  0  0  0
    3.4642    1.8665    0.0000 H   0  0  0  0  0  0  0  0  0  0  0  0
    7.2494   -1.1423    0.0000 H   0  0  0  0  0  0  0  0  0  0  0  0
    7.6479   -1.8326    0.0000 H   0  0  0  0  0  0  0  0  0  0  0  0
    5.8725    1.1423    0.0000 H   0  0  0  0  0  0  0  0  0  0  0  0
    5.4739    1.8326    0.0000 H   0  0  0  0  0  0  0  0  0  0  0  0
    8.3274   -2.2250    0.0000 H   0  0  0  0  0  0  0  0  0  0  0  0
    9.1245   -2.2250    0.0000 H   0  0  0  0  0  0  0  0  0  0  0  0
    4.7944    2.2250    0.0000 H   0  0  0  0  0  0  0  0  0  0  0  0
    3.9973    2.2250    0.0000 H   0  0  0  0  0  0  0  0  0  0  0  0
  1 21  1  0  0  0  0
  1 23  1  0  0  0  0
  2 22  1  0  0  0  0
  2 24  1  0  0  0  0
  3 21  2  0  0  0  0
  4 22  2  0  0  0  0
  5 23  2  0  0  0  0
  6 24  2  0  0  0  0
  7  9  1  0  0  0  0
  7 11  1  0  0  0  0
  7 17  1  0  0  0  0
  7 25  1  0  0  0  0
  8 10  1  0  0  0  0
  8 12  1  0  0  0  0
  8 18  1  0  0  0  0
  8 26  1  0  0  0  0
  9 10  1  0  0  0  0
  9 27  1  0  0  0  0
  9 28  1  0  0  0  0
 10 29  1  0  0  0  0
 10 30  1  0  0  0  0
 11 13  1  0  0  0  0
 11 31  1  0  0  0  0
 11 32  1  0  0  0  0
 12 14  1  0  0  0  0
 12 33  1  0  0  0  0
 12 34  1  0  0  0  0
 13 15  1  0  0  0  0
 13 21  1  0  0  0  0
 13 35  1  0  0  0  0
 14 16  1  0  0  0  0
 14 22  1  0  0  0  0
 14 36  1  0  0  0  0
 15 19  1  0  0  0  0
 15 23  1  0  0  0  0
 15 37  1  0  0  0  0
 16 20  1  0  0  0  0
 16 24  1  0  0  0  0
 16 38  1  0  0  0  0
 17 19  1  0  0  0  0
 17 39  1  0  0  0  0
 17 40  1  0  0  0  0
 18 20  1  0  0  0  0
 18 41  1  0  0  0  0
 18 42  1  0  0  0  0
 19 43  1  0  0  0  0
 19 44  1  0  0  0  0
 20 45  1  0  0  0  0
 20 46  1  0  0  0  0
M  END
> <PUBCHEM_COMPOUND_CID>
88887272

> <PUBCHEM_COMPOUND_CANONICALIZED>
1

> <PUBCHEM_CACTVS_COMPLEXITY>
544

> <PUBCHEM_CACTVS_HBOND_ACCEPTOR>
6

> <PUBCHEM_CACTVS_HBOND_DONOR>
0

> <PUBCHEM_CACTVS_ROTATABLE_BOND>
3

> <PUBCHEM_CACTVS_SUBSKEYS>
AAADceB4OAAAAAAAAAAAAAAAAAAAASJAAAAwYAAAAAAAAEgAAAAAGgAAAAAADQCAgAAACAAABAAIAACQCAAAAAAAAAAAAAEAAAAAABIAAAACAAAEAAAAAAGLyPCOgAAAAAAAAACAAAQAACAAAAAAAAAAAA==

> <PUBCHEM_IUPAC_OPENEYE_NAME>
5-[2-(1,3-dioxo-3a,4,5,6,7,7a-hexahydroisobenzofuran-5-yl)ethyl]-3a,4,5,6,7,7a-hexahydroisobenzofuran-1,3-dione

> <PUBCHEM_IUPAC_CAS_NAME>
5-[2-(1,3-dioxo-3a,4,5,6,7,7a-hexahydroisobenzofuran-5-yl)ethyl]-3a,4,5,6,7,7a-hexahydroisobenzofuran-1,3-dione

> <PUBCHEM_IUPAC_NAME_MARKUP>
5-[2-(1,3-dioxo-3<I>a</I>,4,5,6,7,7<I>a</I>-hexahydro-2-benzofuran-5-yl)ethyl]-3<I>a</I>,4,5,6,7,7<I>a</I>-hexahydro-2-benzofuran-1,3-dione

> <PUBCHEM_IUPAC_NAME>
5-[2-(1,3-dioxo-3a,4,5,6,7,7a-hexahydro-2-benzofuran-5-yl)ethyl]-3a,4,5,6,7,7a-hexahydro-2-benzofuran-1,3-dione

> <PUBCHEM_IUPAC_SYSTEMATIC_NAME>
5-[2-[1,3-bis(oxidanylidene)-3a,4,5,6,7,7a-hexahydro-2-benzofuran-5-yl]ethyl]-3a,4,5,6,7,7a-hexahydro-2-benzofuran-1,3-dione

> <PUBCHEM_IUPAC_TRADITIONAL_NAME>
5-[2-(1,3-diketo-3a,4,5,6,7,7a-hexahydroisobenzofuran-5-yl)ethyl]-3a,4,5,6,7,7a-hexahydroisobenzofuran-1,3-quinone

> <PUBCHEM_IUPAC_INCHI>
InChI=1S/C18H22O6/c19-15-11-5-3-9(7-13(11)17(21)23-15)1-2-10-4-6-12-14(8-10)18(22)24-16(12)20/h9-14H,1-8H2

> <PUBCHEM_IUPAC_INCHIKEY>
DPBSJYSGQSILDV-UHFFFAOYSA-N

> <PUBCHEM_XLOGP3_AA>
2.6

> <PUBCHEM_EXACT_MASS>
334.14163842

> <PUBCHEM_MOLECULAR_FORMULA>
C18H22O6

> <PUBCHEM_MOLECULAR_WEIGHT>
334.4

> <PUBCHEM_OPENEYE_CAN_SMILES>
C1CC2C(CC1CCC3CCC4C(C3)C(=O)OC4=O)C(=O)OC2=O

> <PUBCHEM_OPENEYE_ISO_SMILES>
C1CC2C(CC1CCC3CCC4C(C3)C(=O)OC4=O)C(=O)OC2=O

> <PUBCHEM_CACTVS_TPSA>
86.7

> <PUBCHEM_MONOISOTOPIC_WEIGHT>
334.14163842

> <PUBCHEM_TOTAL_CHARGE>
0

> <PUBCHEM_HEAVY_ATOM_COUNT>
24

> <PUBCHEM_ATOM_DEF_STEREO_COUNT>
0

> <PUBCHEM_ATOM_UDEF_STEREO_COUNT>
6

> <PUBCHEM_BOND_DEF_STEREO_COUNT>
0

> <PUBCHEM_BOND_UDEF_STEREO_COUNT>
0

> <PUBCHEM_ISOTOPIC_ATOM_COUNT>
0

> <PUBCHEM_COMPONENT_COUNT>
1

> <PUBCHEM_CACTVS_TAUTO_COUNT>
-1

> <PUBCHEM_COORDINATE_TYPE>
1
5
255

> <PUBCHEM_BONDANNOTATIONS>
13  11  3
14  12  3
15  19  3
16  20  3
7  9  3
8  10  3

$$$$
