 
  -OEChem-10192103532D

 56 57  0     1  0  0  0  0  0999 V2000
   12.0632    2.2500    0.0000 O   0  0  0  0  0  0  0  0  0  0  0  0
    4.2690   -2.2500    0.0000 O   0  0  0  0  0  0  0  0  0  0  0  0
   13.7953    4.2500    0.0000 O   0  0  0  0  0  0  0  0  0  0  0  0
    2.5369   -4.2500    0.0000 O   0  0  0  0  0  0  0  0  0  0  0  0
   12.0632    5.2500    0.0000 O   0  0  0  0  0  0  0  0  0  0  0  0
    4.2690   -5.2500    0.0000 O   0  0  0  0  0  0  0  0  0  0  0  0
   10.3312    2.2500    0.0000 O   0  0  0  0  0  0  0  0  0  0  0  0
    6.0010   -2.2500    0.0000 O   0  0  0  0  0  0  0  0  0  0  0  0
   10.3312    4.2500    0.0000 O   0  0  0  0  0  0  0  0  0  0  0  0
    6.0010   -4.2500    0.0000 O   0  0  0  0  0  0  0  0  0  0  0  0
   13.7953    1.2500    0.0000 O   0  0  0  0  0  0  0  0  0  0  0  0
    2.5369   -1.2500    0.0000 O   0  0  0  0  0  0  0  0  0  0  0  0
   12.9292    3.7500    0.0000 C   0  0  1  0  0  0  0  0  0  0  0  0
    3.4030   -3.7500    0.0000 C   0  0  1  0  0  0  0  0  0  0  0  0
   12.0632    4.2500    0.0000 C   0  0  1  0  0  0  0  0  0  0  0  0
    4.2690   -4.2500    0.0000 C   0  0  1  0  0  0  0  0  0  0  0  0
   12.9292    2.7500    0.0000 C   0  0  1  0  0  0  0  0  0  0  0  0
    3.4030   -2.7500    0.0000 C   0  0  1  0  0  0  0  0  0  0  0  0
   11.1972    3.7500    0.0000 C   0  0  1  0  0  0  0  0  0  0  0  0
    5.1350   -3.7500    0.0000 C   0  0  1  0  0  0  0  0  0  0  0  0
   11.1972    2.7500    0.0000 C   0  0  2  0  0  0  0  0  0  0  0  0
    5.1350   -2.7500    0.0000 C   0  0  2  0  0  0  0  0  0  0  0  0
   13.7953    2.2500    0.0000 C   0  0  0  0  0  0  0  0  0  0  0  0
    2.5369   -2.2500    0.0000 C   0  0  0  0  0  0  0  0  0  0  0  0
   10.3312    1.2500    0.0000 C   0  0  0  0  0  0  0  0  0  0  0  0
    6.0010   -1.2500    0.0000 C   0  0  0  0  0  0  0  0  0  0  0  0
    9.4651    0.7500    0.0000 C   0  0  0  0  0  0  0  0  0  0  0  0
    6.8671   -0.7500    0.0000 C   0  0  0  0  0  0  0  0  0  0  0  0
    8.5991    0.2500    0.0000 C   0  0  0  0  0  0  0  0  0  0  0  0
    7.7331   -0.2500    0.0000 C   0  0  0  0  0  0  0  0  0  0  0  0
   12.9292    4.3700    0.0000 H   0  0  0  0  0  0  0  0  0  0  0  0
    3.4030   -4.3700    0.0000 H   0  0  0  0  0  0  0  0  0  0  0  0
   11.5263    4.5600    0.0000 H   0  0  0  0  0  0  0  0  0  0  0  0
    3.7320   -4.5600    0.0000 H   0  0  0  0  0  0  0  0  0  0  0  0
   12.9292    2.1300    0.0000 H   0  0  0  0  0  0  0  0  0  0  0  0
    3.4030   -2.1300    0.0000 H   0  0  0  0  0  0  0  0  0  0  0  0
   10.6603    3.4400    0.0000 H   0  0  0  0  0  0  0  0  0  0  0  0
    5.1350   -4.3700    0.0000 H   0  0  0  0  0  0  0  0  0  0  0  0
   11.1972    2.1300    0.0000 H   0  0  0  0  0  0  0  0  0  0  0  0
    5.1350   -2.1300    0.0000 H   0  0  0  0  0  0  0  0  0  0  0  0
   14.4058    2.1423    0.0000 H   0  0  0  0  0  0  0  0  0  0  0  0
   14.0073    2.8326    0.0000 H   0  0  0  0  0  0  0  0  0  0  0  0
    1.9264   -2.1423    0.0000 H   0  0  0  0  0  0  0  0  0  0  0  0
    2.3249   -2.8326    0.0000 H   0  0  0  0  0  0  0  0  0  0  0  0
   14.3322    3.9400    0.0000 H   0  0  0  0  0  0  0  0  0  0  0  0
    2.0000   -3.9400    0.0000 H   0  0  0  0  0  0  0  0  0  0  0  0
   12.6002    5.5600    0.0000 H   0  0  0  0  0  0  0  0  0  0  0  0
    3.7320   -5.5600    0.0000 H   0  0  0  0  0  0  0  0  0  0  0  0
    9.7942    3.9400    0.0000 H   0  0  0  0  0  0  0  0  0  0  0  0
    6.5380   -3.9400    0.0000 H   0  0  0  0  0  0  0  0  0  0  0  0
   10.5432    0.6674    0.0000 H   0  0  0  0  0  0  0  0  0  0  0  0
   10.9417    1.3577    0.0000 H   0  0  0  0  0  0  0  0  0  0  0  0
    5.7890   -0.6674    0.0000 H   0  0  0  0  0  0  0  0  0  0  0  0
    5.3905   -1.3577    0.0000 H   0  0  0  0  0  0  0  0  0  0  0  0
   14.3322    0.9400    0.0000 H   0  0  0  0  0  0  0  0  0  0  0  0
    2.0000   -0.9400    0.0000 H   0  0  0  0  0  0  0  0  0  0  0  0
  1 17  1  0  0  0  0
  1 21  1  0  0  0  0
  2 18  1  0  0  0  0
  2 22  1  0  0  0  0
 13  3  1  6  0  0  0
  3 45  1  0  0  0  0
 14  4  1  6  0  0  0
  4 46  1  0  0  0  0
 15  5  1  1  0  0  0
  5 47  1  0  0  0  0
 16  6  1  1  0  0  0
  6 48  1  0  0  0  0
 21  7  1  6  0  0  0
  7 25  1  0  0  0  0
 22  8  1  6  0  0  0
  8 26  1  0  0  0  0
 19  9  1  1  0  0  0
  9 49  1  0  0  0  0
 20 10  1  1  0  0  0
 10 50  1  0  0  0  0
 11 23  1  0  0  0  0
 11 55  1  0  0  0  0
 12 24  1  0  0  0  0
 12 56  1  0  0  0  0
 13 15  1  0  0  0  0
 13 17  1  0  0  0  0
 13 31  1  0  0  0  0
 14 16  1  0  0  0  0
 14 18  1  0  0  0  0
 14 32  1  0  0  0  0
 15 19  1  0  0  0  0
 15 33  1  0  0  0  0
 16 20  1  0  0  0  0
 16 34  1  0  0  0  0
 17 23  1  1  0  0  0
 17 35  1  0  0  0  0
 18 24  1  1  0  0  0
 18 36  1  0  0  0  0
 19 21  1  0  0  0  0
 19 37  1  0  0  0  0
 20 22  1  0  0  0  0
 20 38  1  0  0  0  0
 21 39  1  0  0  0  0
 22 40  1  0  0  0  0
 23 41  1  0  0  0  0
 23 42  1  0  0  0  0
 24 43  1  0  0  0  0
 24 44  1  0  0  0  0
 25 27  1  0  0  0  0
 25 51  1  0  0  0  0
 25 52  1  0  0  0  0
 26 28  1  0  0  0  0
 26 53  1  0  0  0  0
 26 54  1  0  0  0  0
 27 29  3  0  0  0  0
 28 30  3  0  0  0  0
 29 30  1  0  0  0  0
M  END
> <PUBCHEM_COMPOUND_CID>
11080571

> <PUBCHEM_COMPOUND_CANONICALIZED>
1

> <PUBCHEM_CACTVS_COMPLEXITY>
616

> <PUBCHEM_CACTVS_HBOND_ACCEPTOR>
12

> <PUBCHEM_CACTVS_HBOND_DONOR>
8

> <PUBCHEM_CACTVS_ROTATABLE_BOND>
7

> <PUBCHEM_CACTVS_SUBSKEYS>
AAADceB4PAAAAAAAAAAAAAAAAAAAAAAAAAAkSAAAAAAAAAAAAAAAGgAACAAACBSwgAMACAAABgBAEAAAAAAAAAAAAAAAAAAAAAAREAIAAAAiQAAFAAAHAAHAYAwAAAAAAAAAAAAAAAAAAAAAAAAAAAAAAA==

> <PUBCHEM_IUPAC_OPENEYE_NAME>
(2R,3S,4S,5S,6S)-2-(hydroxymethyl)-6-[6-[(2S,3S,4S,5S,6R)-3,4,5-trihydroxy-6-(hydroxymethyl)tetrahydropyran-2-yl]oxyhexa-2,4-diynoxy]tetrahydropyran-3,4,5-triol

> <PUBCHEM_IUPAC_CAS_NAME>
(2R,3S,4S,5S,6S)-2-(hydroxymethyl)-6-[6-[[(2S,3S,4S,5S,6R)-3,4,5-trihydroxy-6-(hydroxymethyl)-2-oxanyl]oxy]hexa-2,4-diynoxy]oxane-3,4,5-triol

> <PUBCHEM_IUPAC_NAME_MARKUP>
(2<I>R</I>,3<I>S</I>,4<I>S</I>,5<I>S</I>,6<I>S</I>)-2-(hydroxymethyl)-6-[6-[(2<I>S</I>,3<I>S</I>,4<I>S</I>,5<I>S</I>,6<I>R</I>)-3,4,5-trihydroxy-6-(hydroxymethyl)oxan-2-yl]oxyhexa-2,4-diynoxy]oxane-3,4,5-triol

> <PUBCHEM_IUPAC_NAME>
(2R,3S,4S,5S,6S)-2-(hydroxymethyl)-6-[6-[(2S,3S,4S,5S,6R)-3,4,5-trihydroxy-6-(hydroxymethyl)oxan-2-yl]oxyhexa-2,4-diynoxy]oxane-3,4,5-triol

> <PUBCHEM_IUPAC_SYSTEMATIC_NAME>
(2R,3S,4S,5S,6S)-2-(hydroxymethyl)-6-[6-[(2S,3S,4S,5S,6R)-6-(hydroxymethyl)-3,4,5-tris(oxidanyl)oxan-2-yl]oxyhexa-2,4-diynoxy]oxane-3,4,5-triol

> <PUBCHEM_IUPAC_TRADITIONAL_NAME>
(2R,3S,4S,5S,6S)-2-methylol-6-[6-[(2S,3S,4S,5S,6R)-3,4,5-trihydroxy-6-methylol-tetrahydropyran-2-yl]oxyhexa-2,4-diynoxy]tetrahydropyran-3,4,5-triol

> <PUBCHEM_IUPAC_INCHI>
InChI=1S/C18H26O12/c19-7-9-11(21)13(23)15(25)17(29-9)27-5-3-1-2-4-6-28-18-16(26)14(24)12(22)10(8-20)30-18/h9-26H,5-8H2/t9-,10-,11-,12-,13+,14+,15+,16+,17+,18+/m1/s1

> <PUBCHEM_IUPAC_INCHIKEY>
VGNLQVCPZREMJC-LFVZYRDMSA-N

> <PUBCHEM_XLOGP3_AA>
-3.9

> <PUBCHEM_EXACT_MASS>
434.14242626

> <PUBCHEM_MOLECULAR_FORMULA>
C18H26O12

> <PUBCHEM_MOLECULAR_WEIGHT>
434.4

> <PUBCHEM_OPENEYE_CAN_SMILES>
C(C#CC#CCOC1C(C(C(C(O1)CO)O)O)O)OC2C(C(C(C(O2)CO)O)O)O

> <PUBCHEM_OPENEYE_ISO_SMILES>
C(C#CC#CCO[C@@H]1[C@H]([C@H]([C@@H]([C@H](O1)CO)O)O)O)O[C@@H]2[C@H]([C@H]([C@@H]([C@H](O2)CO)O)O)O

> <PUBCHEM_CACTVS_TPSA>
199

> <PUBCHEM_MONOISOTOPIC_WEIGHT>
434.14242626

> <PUBCHEM_TOTAL_CHARGE>
0

> <PUBCHEM_HEAVY_ATOM_COUNT>
30

> <PUBCHEM_ATOM_DEF_STEREO_COUNT>
10

> <PUBCHEM_ATOM_UDEF_STEREO_COUNT>
0

> <PUBCHEM_BOND_DEF_STEREO_COUNT>
0

> <PUBCHEM_BOND_UDEF_STEREO_COUNT>
0

> <PUBCHEM_ISOTOPIC_ATOM_COUNT>
0

> <PUBCHEM_COMPONENT_COUNT>
1

> <PUBCHEM_CACTVS_TAUTO_COUNT>
-1

> <PUBCHEM_COORDINATE_TYPE>
1
5
255

> <PUBCHEM_BONDANNOTATIONS>
20  10  5
17  23  5
18  24  5
13  3  6
14  4  6
15  5  5
16  6  5
21  7  6
22  8  6
19  9  5

$$$$
