 
  -OEChem-10192103392D

 48 48  0     0  0  0  0  0  0999 V2000
    4.6340   -2.2500    0.0000 O   0  0  0  0  0  0  0  0  0  0  0  0
    4.0000   -1.6160    0.0000 O   0  0  0  0  0  0  0  0  0  0  0  0
    6.3660   -2.2500    0.0000 O   0  0  0  0  0  0  0  0  0  0  0  0
    4.0000    0.1160    0.0000 O   0  0  0  0  0  0  0  0  0  0  0  0
    7.0000   -1.6160    0.0000 O   0  5  0  0  0  0  0  0  0  0  0  0
    7.0000    0.1160    0.0000 O   0  0  0  0  0  0  0  0  0  0  0  0
    6.5000   -0.7500    0.0000 N   0  3  0  0  0  0  0  0  0  0  0  0
    6.3660    0.7500    0.0000 N   0  0  0  0  0  0  0  0  0  0  0  0
    4.6340    0.7500    0.0000 N   0  0  0  0  0  0  0  0  0  0  0  0
    5.5000    2.2500    0.0000 N   0  0  0  0  0  0  0  0  0  0  0  0
    7.2320    2.2500    0.0000 N   0  0  0  0  0  0  0  0  0  0  0  0
    3.7680    2.2500    0.0000 N   0  0  0  0  0  0  0  0  0  0  0  0
    7.2320    3.2500    0.0000 N   0  3  0  0  0  0  0  0  0  0  0  0
    3.7680    3.2500    0.0000 N   0  3  0  0  0  0  0  0  0  0  0  0
    7.2320    4.2500    0.0000 N   0  5  0  0  0  0  0  0  0  0  0  0
    3.7680    4.2500    0.0000 N   0  5  0  0  0  0  0  0  0  0  0  0
    4.6340   -3.2500    0.0000 C   0  0  0  0  0  0  0  0  0  0  0  0
    3.0000   -1.6160    0.0000 C   0  0  0  0  0  0  0  0  0  0  0  0
    5.5000   -0.7500    0.0000 C   0  0  0  0  0  0  0  0  0  0  0  0
    5.5000   -1.7500    0.0000 C   0  0  0  0  0  0  0  0  0  0  0  0
    4.5000   -0.7500    0.0000 C   0  0  0  0  0  0  0  0  0  0  0  0
    4.6340   -4.2500    0.0000 C   0  0  0  0  0  0  0  0  0  0  0  0
    5.6340   -3.2500    0.0000 C   0  0  0  0  0  0  0  0  0  0  0  0
    3.6340   -3.2500    0.0000 C   0  0  0  0  0  0  0  0  0  0  0  0
    2.0000   -1.6160    0.0000 C   0  0  0  0  0  0  0  0  0  0  0  0
    3.0000   -2.6160    0.0000 C   0  0  0  0  0  0  0  0  0  0  0  0
    3.0000   -0.6160    0.0000 C   0  0  0  0  0  0  0  0  0  0  0  0
    5.5000    0.2500    0.0000 C   0  0  0  0  0  0  0  0  0  0  0  0
    6.3660    1.7500    0.0000 C   0  0  0  0  0  0  0  0  0  0  0  0
    4.6340    1.7500    0.0000 C   0  0  0  0  0  0  0  0  0  0  0  0
    4.0140   -4.2500    0.0000 H   0  0  0  0  0  0  0  0  0  0  0  0
    4.6340   -4.8700    0.0000 H   0  0  0  0  0  0  0  0  0  0  0  0
    5.2540   -4.2500    0.0000 H   0  0  0  0  0  0  0  0  0  0  0  0
    5.6340   -3.8700    0.0000 H   0  0  0  0  0  0  0  0  0  0  0  0
    6.2540   -3.2500    0.0000 H   0  0  0  0  0  0  0  0  0  0  0  0
    5.6340   -2.6300    0.0000 H   0  0  0  0  0  0  0  0  0  0  0  0
    3.6340   -2.6300    0.0000 H   0  0  0  0  0  0  0  0  0  0  0  0
    3.0140   -3.2500    0.0000 H   0  0  0  0  0  0  0  0  0  0  0  0
    3.6340   -3.8700    0.0000 H   0  0  0  0  0  0  0  0  0  0  0  0
    2.0000   -0.9960    0.0000 H   0  0  0  0  0  0  0  0  0  0  0  0
    1.3800   -1.6160    0.0000 H   0  0  0  0  0  0  0  0  0  0  0  0
    2.0000   -2.2360    0.0000 H   0  0  0  0  0  0  0  0  0  0  0  0
    2.3800   -2.6160    0.0000 H   0  0  0  0  0  0  0  0  0  0  0  0
    3.0000   -3.2360    0.0000 H   0  0  0  0  0  0  0  0  0  0  0  0
    3.6200   -2.6160    0.0000 H   0  0  0  0  0  0  0  0  0  0  0  0
    3.6200   -0.6160    0.0000 H   0  0  0  0  0  0  0  0  0  0  0  0
    3.0000    0.0040    0.0000 H   0  0  0  0  0  0  0  0  0  0  0  0
    2.3800   -0.6160    0.0000 H   0  0  0  0  0  0  0  0  0  0  0  0
  1 17  1  0  0  0  0
  1 20  1  0  0  0  0
  2 18  1  0  0  0  0
  2 21  1  0  0  0  0
  3 20  2  0  0  0  0
  4 21  2  0  0  0  0
  5  7  1  0  0  0  0
  6  7  2  0  0  0  0
  7 19  1  0  0  0  0
  8 28  2  0  0  0  0
  8 29  1  0  0  0  0
  9 28  1  0  0  0  0
  9 30  2  0  0  0  0
 10 29  2  0  0  0  0
 10 30  1  0  0  0  0
 11 13  2  0  0  0  0
 11 29  1  0  0  0  0
 12 14  2  0  0  0  0
 12 30  1  0  0  0  0
 13 15  2  0  0  0  0
 14 16  2  0  0  0  0
 17 22  1  0  0  0  0
 17 23  1  0  0  0  0
 17 24  1  0  0  0  0
 18 25  1  0  0  0  0
 18 26  1  0  0  0  0
 18 27  1  0  0  0  0
 19 20  1  0  0  0  0
 19 21  1  0  0  0  0
 19 28  1  0  0  0  0
 22 31  1  0  0  0  0
 22 32  1  0  0  0  0
 22 33  1  0  0  0  0
 23 34  1  0  0  0  0
 23 35  1  0  0  0  0
 23 36  1  0  0  0  0
 24 37  1  0  0  0  0
 24 38  1  0  0  0  0
 24 39  1  0  0  0  0
 25 40  1  0  0  0  0
 25 41  1  0  0  0  0
 25 42  1  0  0  0  0
 26 43  1  0  0  0  0
 26 44  1  0  0  0  0
 26 45  1  0  0  0  0
 27 46  1  0  0  0  0
 27 47  1  0  0  0  0
 27 48  1  0  0  0  0
M  CHG  6   5  -1   7   1  13   1  14   1  15  -1  16  -1
M  END
> <PUBCHEM_COMPOUND_CID>
3286905

> <PUBCHEM_COMPOUND_CANONICALIZED>
1

> <PUBCHEM_CACTVS_COMPLEXITY>
731

> <PUBCHEM_CACTVS_HBOND_ACCEPTOR>
13

> <PUBCHEM_CACTVS_HBOND_DONOR>
0

> <PUBCHEM_CACTVS_ROTATABLE_BOND>
9

> <PUBCHEM_CACTVS_SUBSKEYS>
AAADceBz+AAAAAAAAAAAAAAAAAAAAAAAAAAsAAAAAAAAAAABgAAAHgAMAAAADMyBgwADGAYYVAArAAKwLwAAgAkAAKAhAAGgAACCSAwICAAXAAALIAIAAAAAAAAAAAAAAAAAAAAAAAAAAAAAAAAAAAAAAA==

> <PUBCHEM_IUPAC_OPENEYE_NAME>
ditert-butyl 2-(4,6-diazido-1,3,5-triazin-2-yl)-2-nitro-propanedioate

> <PUBCHEM_IUPAC_CAS_NAME>
2-(4,6-diazido-1,3,5-triazin-2-yl)-2-nitropropanedioic acid ditert-butyl ester

> <PUBCHEM_IUPAC_NAME_MARKUP>
di<I>tert</I>-butyl 2-(4,6-diazido-1,3,5-triazin-2-yl)-2-nitropropanedioate

> <PUBCHEM_IUPAC_NAME>
ditert-butyl 2-(4,6-diazido-1,3,5-triazin-2-yl)-2-nitropropanedioate

> <PUBCHEM_IUPAC_SYSTEMATIC_NAME>
ditert-butyl 2-(4,6-diazido-1,3,5-triazin-2-yl)-2-nitro-propanedioate

> <PUBCHEM_IUPAC_TRADITIONAL_NAME>
2-(4,6-diazido-s-triazin-2-yl)-2-nitro-malonic acid ditert-butyl ester

> <PUBCHEM_IUPAC_INCHI>
InChI=1S/C14H18N10O6/c1-12(2,3)29-8(25)14(24(27)28,9(26)30-13(4,5)6)7-17-10(20-22-15)19-11(18-7)21-23-16/h1-6H3

> <PUBCHEM_IUPAC_INCHIKEY>
OCLZZRGKDFNYRP-UHFFFAOYSA-N

> <PUBCHEM_XLOGP3_AA>
4.3

> <PUBCHEM_EXACT_MASS>
422.14107833

> <PUBCHEM_MOLECULAR_FORMULA>
C14H18N10O6

> <PUBCHEM_MOLECULAR_WEIGHT>
422.36

> <PUBCHEM_OPENEYE_CAN_SMILES>
CC(C)(C)OC(=O)C(C1=NC(=NC(=N1)N=[N+]=[N-])N=[N+]=[N-])(C(=O)OC(C)(C)C)[N+](=O)[O-]

> <PUBCHEM_OPENEYE_ISO_SMILES>
CC(C)(C)OC(=O)C(C1=NC(=NC(=N1)N=[N+]=[N-])N=[N+]=[N-])(C(=O)OC(C)(C)C)[N+](=O)[O-]

> <PUBCHEM_CACTVS_TPSA>
166

> <PUBCHEM_MONOISOTOPIC_WEIGHT>
422.14107833

> <PUBCHEM_TOTAL_CHARGE>
0

> <PUBCHEM_HEAVY_ATOM_COUNT>
30

> <PUBCHEM_ATOM_DEF_STEREO_COUNT>
0

> <PUBCHEM_ATOM_UDEF_STEREO_COUNT>
0

> <PUBCHEM_BOND_DEF_STEREO_COUNT>
0

> <PUBCHEM_BOND_UDEF_STEREO_COUNT>
2

> <PUBCHEM_ISOTOPIC_ATOM_COUNT>
0

> <PUBCHEM_COMPONENT_COUNT>
1

> <PUBCHEM_CACTVS_TAUTO_COUNT>
-1

> <PUBCHEM_COORDINATE_TYPE>
1
5
255

> <PUBCHEM_BONDANNOTATIONS>
10  29  8
10  30  8
11  13  1
12  14  1
8  28  8
8  29  8
9  28  8
9  30  8

$$$$
