 
  -OEChem-10192103262D

 91 94  0     1  0  0  0  0  0999 V2000
    4.2690    0.5000    0.0000 O   0  0  0  0  0  0  0  0  0  0  0  0
    6.0010    2.5000    0.0000 O   0  0  0  0  0  0  0  0  0  0  0  0
    7.7331    2.5000    0.0000 O   0  0  0  0  0  0  0  0  0  0  0  0
    5.1350   -1.0000    0.0000 O   0  0  0  0  0  0  0  0  0  0  0  0
    4.2690   -3.5000    0.0000 O   0  0  0  0  0  0  0  0  0  0  0  0
    8.5991    5.0000    0.0000 O   0  0  0  0  0  0  0  0  0  0  0  0
    6.0010   -3.5000    0.0000 O   0  0  0  0  0  0  0  0  0  0  0  0
    6.0010   -0.5000    0.0000 O   0  0  0  0  0  0  0  0  0  0  0  0
    7.7331    0.5000    0.0000 O   0  0  0  0  0  0  0  0  0  0  0  0
    2.5369   -2.5000    0.0000 O   0  0  0  0  0  0  0  0  0  0  0  0
    2.5369   -0.5000    0.0000 O   0  0  0  0  0  0  0  0  0  0  0  0
    6.0010    3.5000    0.0000 O   0  0  0  0  0  0  0  0  0  0  0  0
    6.0010    5.5000    0.0000 O   0  0  0  0  0  0  0  0  0  0  0  0
    4.2690   -5.5000    0.0000 O   0  0  0  0  0  0  0  0  0  0  0  0
    7.7331    6.5000    0.0000 O   0  0  0  0  0  0  0  0  0  0  0  0
    4.2690    3.5000    0.0000 O   0  0  0  0  0  0  0  0  0  0  0  0
    6.0010   -6.5000    0.0000 O   0  0  0  0  0  0  0  0  0  0  0  0
    9.4651    2.5000    0.0000 O   0  0  0  0  0  0  0  0  0  0  0  0
    7.7331   -5.5000    0.0000 O   0  0  0  0  0  0  0  0  0  0  0  0
    6.8671   -2.0000    0.0000 O   0  0  0  0  0  0  0  0  0  0  0  0
   11.1972    3.5000    0.0000 O   0  0  0  0  0  0  0  0  0  0  0  0
    7.7331   -2.5000    0.0000 O   0  0  0  0  0  0  0  0  0  0  0  0
    5.1350    1.0000    0.0000 C   0  0  1  0  0  0  0  0  0  0  0  0
    6.0010    0.5000    0.0000 C   0  0  1  0  0  0  0  0  0  0  0  0
    4.2690   -2.5000    0.0000 C   0  0  1  0  0  0  0  0  0  0  0  0
    5.1350    2.0000    0.0000 C   0  0  1  0  0  0  0  0  0  0  0  0
    6.8671    1.0000    0.0000 C   0  0  2  0  0  0  0  0  0  0  0  0
    4.2690   -0.5000    0.0000 C   0  0  2  0  0  0  0  0  0  0  0  0
    6.8671    2.0000    0.0000 C   0  0  1  0  0  0  0  0  0  0  0  0
    3.4030   -2.0000    0.0000 C   0  0  1  0  0  0  0  0  0  0  0  0
    7.7331    3.5000    0.0000 C   0  0  2  0  0  0  0  0  0  0  0  0
    3.4030   -1.0000    0.0000 C   0  0  1  0  0  0  0  0  0  0  0  0
    5.1350   -2.0000    0.0000 C   0  0  1  0  0  0  0  0  0  0  0  0
    8.5991    4.0000    0.0000 C   0  0  1  0  0  0  0  0  0  0  0  0
    6.8671    4.0000    0.0000 C   0  0  1  0  0  0  0  0  0  0  0  0
    5.1350   -4.0000    0.0000 C   0  0  2  0  0  0  0  0  0  0  0  0
    6.8671    5.0000    0.0000 C   0  0  1  0  0  0  0  0  0  0  0  0
    5.1350   -5.0000    0.0000 C   0  0  1  0  0  0  0  0  0  0  0  0
    4.2690    2.5000    0.0000 C   0  0  0  0  0  0  0  0  0  0  0  0
    7.7331    5.5000    0.0000 C   0  0  2  0  0  0  0  0  0  0  0  0
    9.4651    3.5000    0.0000 C   0  0  2  0  0  0  0  0  0  0  0  0
    6.0010   -5.5000    0.0000 C   0  0  2  0  0  0  0  0  0  0  0  0
    6.8671   -5.0000    0.0000 C   0  0  2  0  0  0  0  0  0  0  0  0
    6.0010   -2.5000    0.0000 C   0  0  0  0  0  0  0  0  0  0  0  0
    6.8671   -4.0000    0.0000 C   0  0  1  0  0  0  0  0  0  0  0  0
   10.3312    4.0000    0.0000 C   0  0  0  0  0  0  0  0  0  0  0  0
    7.7331   -3.5000    0.0000 C   0  0  0  0  0  0  0  0  0  0  0  0
    5.1350    0.3800    0.0000 H   0  0  0  0  0  0  0  0  0  0  0  0
    5.4641    0.1900    0.0000 H   0  0  0  0  0  0  0  0  0  0  0  0
    4.8059   -2.8100    0.0000 H   0  0  0  0  0  0  0  0  0  0  0  0
    5.1350    2.6200    0.0000 H   0  0  0  0  0  0  0  0  0  0  0  0
    6.8671    0.3800    0.0000 H   0  0  0  0  0  0  0  0  0  0  0  0
    3.7320   -0.1900    0.0000 H   0  0  0  0  0  0  0  0  0  0  0  0
    7.4040    1.6900    0.0000 H   0  0  0  0  0  0  0  0  0  0  0  0
    3.4030   -2.6200    0.0000 H   0  0  0  0  0  0  0  0  0  0  0  0
    7.1962    3.1900    0.0000 H   0  0  0  0  0  0  0  0  0  0  0  0
    3.4030   -0.3800    0.0000 H   0  0  0  0  0  0  0  0  0  0  0  0
    5.6720   -1.6900    0.0000 H   0  0  0  0  0  0  0  0  0  0  0  0
    9.3352    4.4250    0.0000 H   0  0  0  0  0  0  0  0  0  0  0  0
    7.4040    3.6900    0.0000 H   0  0  0  0  0  0  0  0  0  0  0  0
    5.1350   -3.3800    0.0000 H   0  0  0  0  0  0  0  0  0  0  0  0
    6.3301    4.6900    0.0000 H   0  0  0  0  0  0  0  0  0  0  0  0
    5.1350   -5.6200    0.0000 H   0  0  0  0  0  0  0  0  0  0  0  0
    7.1962    5.8100    0.0000 H   0  0  0  0  0  0  0  0  0  0  0  0
    3.6584    2.6077    0.0000 H   0  0  0  0  0  0  0  0  0  0  0  0
    4.0569    1.9174    0.0000 H   0  0  0  0  0  0  0  0  0  0  0  0
   10.0021    3.1900    0.0000 H   0  0  0  0  0  0  0  0  0  0  0  0
    6.5380   -5.8100    0.0000 H   0  0  0  0  0  0  0  0  0  0  0  0
    7.4040   -4.6900    0.0000 H   0  0  0  0  0  0  0  0  0  0  0  0
    5.6025   -2.9750    0.0000 H   0  0  0  0  0  0  0  0  0  0  0  0
    6.3996   -2.9750    0.0000 H   0  0  0  0  0  0  0  0  0  0  0  0
    6.8671   -3.3800    0.0000 H   0  0  0  0  0  0  0  0  0  0  0  0
    6.5380   -0.8100    0.0000 H   0  0  0  0  0  0  0  0  0  0  0  0
    8.2700    0.8100    0.0000 H   0  0  0  0  0  0  0  0  0  0  0  0
    2.5369   -3.1200    0.0000 H   0  0  0  0  0  0  0  0  0  0  0  0
    2.0000   -0.8100    0.0000 H   0  0  0  0  0  0  0  0  0  0  0  0
   10.7297    4.4750    0.0000 H   0  0  0  0  0  0  0  0  0  0  0  0
    9.9326    4.4750    0.0000 H   0  0  0  0  0  0  0  0  0  0  0  0
    5.4641    3.8100    0.0000 H   0  0  0  0  0  0  0  0  0  0  0  0
    7.9451   -4.0826    0.0000 H   0  0  0  0  0  0  0  0  0  0  0  0
    8.3437   -3.3923    0.0000 H   0  0  0  0  0  0  0  0  0  0  0  0
    6.0010    6.1200    0.0000 H   0  0  0  0  0  0  0  0  0  0  0  0
    4.2690   -6.1200    0.0000 H   0  0  0  0  0  0  0  0  0  0  0  0
    8.2700    6.8100    0.0000 H   0  0  0  0  0  0  0  0  0  0  0  0
    3.7320    3.8100    0.0000 H   0  0  0  0  0  0  0  0  0  0  0  0
    6.5380   -6.8100    0.0000 H   0  0  0  0  0  0  0  0  0  0  0  0
   10.0021    2.1900    0.0000 H   0  0  0  0  0  0  0  0  0  0  0  0
    8.2700   -5.1900    0.0000 H   0  0  0  0  0  0  0  0  0  0  0  0
    6.8671   -1.3800    0.0000 H   0  0  0  0  0  0  0  0  0  0  0  0
   11.7341    3.8100    0.0000 H   0  0  0  0  0  0  0  0  0  0  0  0
    8.2700   -2.1900    0.0000 H   0  0  0  0  0  0  0  0  0  0  0  0
 23  1  1  6  0  0  0
 28  1  1  6  0  0  0
  2 26  1  0  0  0  0
  2 29  1  0  0  0  0
 29  3  1  1  0  0  0
 31  3  1  1  0  0  0
  4 28  1  0  0  0  0
  4 33  1  0  0  0  0
 25  5  1  1  0  0  0
 36  5  1  6  0  0  0
  6 34  1  0  0  0  0
  6 40  1  0  0  0  0
  7 36  1  0  0  0  0
  7 45  1  0  0  0  0
 24  8  1  1  0  0  0
  8 73  1  0  0  0  0
 27  9  1  6  0  0  0
  9 74  1  0  0  0  0
 30 10  1  6  0  0  0
 10 75  1  0  0  0  0
 32 11  1  1  0  0  0
 11 76  1  0  0  0  0
 35 12  1  6  0  0  0
 12 79  1  0  0  0  0
 37 13  1  6  0  0  0
 13 82  1  0  0  0  0
 38 14  1  1  0  0  0
 14 83  1  0  0  0  0
 40 15  1  1  0  0  0
 15 84  1  0  0  0  0
 16 39  1  0  0  0  0
 16 85  1  0  0  0  0
 42 17  1  6  0  0  0
 17 86  1  0  0  0  0
 41 18  1  6  0  0  0
 18 87  1  0  0  0  0
 43 19  1  6  0  0  0
 19 88  1  0  0  0  0
 20 44  1  0  0  0  0
 20 89  1  0  0  0  0
 21 46  1  0  0  0  0
 21 90  1  0  0  0  0
 22 47  1  0  0  0  0
 22 91  1  0  0  0  0
 23 24  1  0  0  0  0
 23 26  1  0  0  0  0
 23 48  1  0  0  0  0
 24 27  1  0  0  0  0
 24 49  1  0  0  0  0
 25 30  1  0  0  0  0
 25 33  1  0  0  0  0
 25 50  1  0  0  0  0
 26 39  1  1  0  0  0
 26 51  1  0  0  0  0
 27 29  1  0  0  0  0
 27 52  1  0  0  0  0
 28 32  1  0  0  0  0
 28 53  1  0  0  0  0
 29 54  1  0  0  0  0
 30 32  1  0  0  0  0
 30 55  1  0  0  0  0
 31 34  1  0  0  0  0
 31 35  1  0  0  0  0
 31 56  1  0  0  0  0
 32 57  1  0  0  0  0
 33 44  1  6  0  0  0
 33 58  1  0  0  0  0
 34 41  1  0  0  0  0
 34 59  1  1  0  0  0
 35 37  1  0  0  0  0
 35 60  1  0  0  0  0
 36 38  1  0  0  0  0
 36 61  1  0  0  0  0
 37 40  1  0  0  0  0
 37 62  1  0  0  0  0
 38 42  1  0  0  0  0
 38 63  1  0  0  0  0
 39 65  1  0  0  0  0
 39 66  1  0  0  0  0
 40 64  1  0  0  0  0
 41 46  1  0  0  0  0
 41 67  1  0  0  0  0
 42 43  1  0  0  0  0
 42 68  1  0  0  0  0
 43 45  1  0  0  0  0
 43 69  1  0  0  0  0
 44 70  1  0  0  0  0
 44 71  1  0  0  0  0
 45 47  1  6  0  0  0
 45 72  1  0  0  0  0
 46 77  1  0  0  0  0
 46 78  1  0  0  0  0
 47 80  1  0  0  0  0
 47 81  1  0  0  0  0
M  END
> <PUBCHEM_COMPOUND_CID>
91855613

> <PUBCHEM_COMPOUND_CANONICALIZED>
1

> <PUBCHEM_CACTVS_COMPLEXITY>
966

> <PUBCHEM_CACTVS_HBOND_ACCEPTOR>
22

> <PUBCHEM_CACTVS_HBOND_DONOR>
15

> <PUBCHEM_CACTVS_ROTATABLE_BOND>
11

> <PUBCHEM_CACTVS_SUBSKEYS>
AAADcfB4PgAAAAAAAAAAAAAAAAAAAAAAAAAkSJEgAAAAAAAAAAAAGgAACAAACBSwgAMACAAABgAAAAAAAAAAAAAAAAAAAAAAAAAREAIAAAAiQAAFAAAHAAHA4CwAAAAAAAAAAAAAAAAAAAAAAAAAAAAAAA==

> <PUBCHEM_IUPAC_OPENEYE_NAME>
(2S,3R,4S,5R,6R)-2-[(2R,3S,4R,5R,6S)-6-[(2R,3S,4R,5R,6S)-6-[(2R,3S,4R,5S,6S)-2-[(1S)-1,2-dihydroxyethyl]-4,5,6-trihydroxy-tetrahydropyran-3-yl]oxy-4,5-dihydroxy-2-(hydroxymethyl)tetrahydropyran-3-yl]oxy-4,5-dihydroxy-2-(hydroxymethyl)tetrahydropyran-3-yl]oxy-6-(hydroxymethyl)tetrahydropyran-3,4,5-triol

> <PUBCHEM_IUPAC_CAS_NAME>
(2S,3R,4S,5R,6R)-2-[[(2R,3S,4R,5R,6S)-6-[[(2R,3S,4R,5R,6S)-6-[[(2R,3S,4R,5S,6S)-2-[(1S)-1,2-dihydroxyethyl]-4,5,6-trihydroxy-3-oxanyl]oxy]-4,5-dihydroxy-2-(hydroxymethyl)-3-oxanyl]oxy]-4,5-dihydroxy-2-(hydroxymethyl)-3-oxanyl]oxy]-6-(hydroxymethyl)oxane-3,4,5-triol

> <PUBCHEM_IUPAC_NAME_MARKUP>
(2<I>S</I>,3<I>R</I>,4<I>S</I>,5<I>R</I>,6<I>R</I>)-2-[(2<I>R</I>,3<I>S</I>,4<I>R</I>,5<I>R</I>,6<I>S</I>)-6-[(2<I>R</I>,3<I>S</I>,4<I>R</I>,5<I>R</I>,6<I>S</I>)-6-[(2<I>R</I>,3<I>S</I>,4<I>R</I>,5<I>S</I>,6<I>S</I>)-2-[(1<I>S</I>)-1,2-dihydroxyethyl]-4,5,6-trihydroxyoxan-3-yl]oxy-4,5-dihydroxy-2-(hydroxymethyl)oxan-3-yl]oxy-4,5-dihydroxy-2-(hydroxymethyl)oxan-3-yl]oxy-6-(hydroxymethyl)oxane-3,4,5-triol

> <PUBCHEM_IUPAC_NAME>
(2S,3R,4S,5R,6R)-2-[(2R,3S,4R,5R,6S)-6-[(2R,3S,4R,5R,6S)-6-[(2R,3S,4R,5S,6S)-2-[(1S)-1,2-dihydroxyethyl]-4,5,6-trihydroxyoxan-3-yl]oxy-4,5-dihydroxy-2-(hydroxymethyl)oxan-3-yl]oxy-4,5-dihydroxy-2-(hydroxymethyl)oxan-3-yl]oxy-6-(hydroxymethyl)oxane-3,4,5-triol

> <PUBCHEM_IUPAC_SYSTEMATIC_NAME>
(2S,3R,4S,5R,6R)-2-[(2R,3S,4R,5R,6S)-6-[(2R,3S,4R,5R,6S)-6-[(2R,3S,4R,5S,6S)-2-[(1S)-1,2-bis(oxidanyl)ethyl]-4,5,6-tris(oxidanyl)oxan-3-yl]oxy-2-(hydroxymethyl)-4,5-bis(oxidanyl)oxan-3-yl]oxy-2-(hydroxymethyl)-4,5-bis(oxidanyl)oxan-3-yl]oxy-6-(hydroxymethyl)oxane-3,4,5-triol

> <PUBCHEM_IUPAC_TRADITIONAL_NAME>
(2S,3R,4S,5R,6R)-2-[(2R,3S,4R,5R,6S)-6-[(2R,3S,4R,5R,6S)-6-[(2R,3S,4R,5S,6S)-2-[(1S)-1,2-dihydroxyethyl]-4,5,6-trihydroxy-tetrahydropyran-3-yl]oxy-4,5-dihydroxy-2-methylol-tetrahydropyran-3-yl]oxy-4,5-dihydroxy-2-methylol-tetrahydropyran-3-yl]oxy-6-methylol-tetrahydropyran-3,4,5-triol

> <PUBCHEM_IUPAC_INCHI>
InChI=1S/C25H44O22/c26-1-5(30)18-21(11(33)14(36)22(40)44-18)47-25-17(39)13(35)20(8(4-29)43-25)46-24-16(38)12(34)19(7(3-28)42-24)45-23-15(37)10(32)9(31)6(2-27)41-23/h5-40H,1-4H2/t5-,6+,7+,8+,9-,10-,11+,12+,13+,14-,15+,16+,17+,18+,19+,20+,21-,22-,23-,24-,25-/m0/s1

> <PUBCHEM_IUPAC_INCHIKEY>
SAJSAGLGRYGSTD-UFRCAVLVSA-N

> <PUBCHEM_XLOGP3_AA>
-9.6

> <PUBCHEM_EXACT_MASS>
696.23242303

> <PUBCHEM_MOLECULAR_FORMULA>
C25H44O22

> <PUBCHEM_MOLECULAR_WEIGHT>
696.6

> <PUBCHEM_OPENEYE_CAN_SMILES>
C(C1C(C(C(C(O1)OC2C(OC(C(C2O)O)OC3C(OC(C(C3O)O)OC4C(C(C(OC4C(CO)O)O)O)O)CO)CO)O)O)O)O

> <PUBCHEM_OPENEYE_ISO_SMILES>
C([C@@H]1[C@@H]([C@@H]([C@H]([C@@H](O1)O[C@@H]2[C@H](O[C@H]([C@@H]([C@H]2O)O)O[C@@H]3[C@H](O[C@H]([C@@H]([C@H]3O)O)O[C@H]4[C@@H]([C@@H]([C@H](O[C@@H]4[C@H](CO)O)O)O)O)CO)CO)O)O)O)O

> <PUBCHEM_CACTVS_TPSA>
368

> <PUBCHEM_MONOISOTOPIC_WEIGHT>
696.23242303

> <PUBCHEM_TOTAL_CHARGE>
0

> <PUBCHEM_HEAVY_ATOM_COUNT>
47

> <PUBCHEM_ATOM_DEF_STEREO_COUNT>
21

> <PUBCHEM_ATOM_UDEF_STEREO_COUNT>
0

> <PUBCHEM_BOND_DEF_STEREO_COUNT>
0

> <PUBCHEM_BOND_UDEF_STEREO_COUNT>
0

> <PUBCHEM_ISOTOPIC_ATOM_COUNT>
0

> <PUBCHEM_COMPONENT_COUNT>
1

> <PUBCHEM_CACTVS_TAUTO_COUNT>
-1

> <PUBCHEM_COORDINATE_TYPE>
1
5
255

> <PUBCHEM_BONDANNOTATIONS>
23  1  6
28  1  6
30  10  6
32  11  5
35  12  6
37  13  6
38  14  5
40  15  5
42  17  6
41  18  6
43  19  6
26  39  5
29  3  5
31  3  5
33  44  6
34  59  5
45  47  6
25  5  5
36  5  6
24  8  5
27  9  6

$$$$
