 
  -OEChem-10192103432D

 74 74  0     1  0  0  0  0  0999 V2000
    8.9282   -0.2500    0.0000 O   0  0  0  0  0  0  0  0  0  0  0  0
    7.1962   -2.2500    0.0000 O   0  0  0  0  0  0  0  0  0  0  0  0
    8.9282   -3.2500    0.0000 O   0  0  0  0  0  0  0  0  0  0  0  0
   10.6603   -2.2500    0.0000 O   0  0  0  0  0  0  0  0  0  0  0  0
   10.6603   -0.2500    0.0000 O   0  0  0  0  0  0  0  0  0  0  0  0
    7.1962    0.7500    0.0000 O   0  0  0  0  0  0  0  0  0  0  0  0
    6.3301   -0.7500    0.0000 O   0  0  0  0  0  0  0  0  0  0  0  0
   10.6603   -3.2500    0.0000 O   0  0  0  0  0  0  0  0  0  0  0  0
   11.5263   -0.7500    0.0000 O   0  0  0  0  0  0  0  0  0  0  0  0
    5.4641    0.7500    0.0000 O   0  0  0  0  0  0  0  0  0  0  0  0
    8.0622   -1.7500    0.0000 C   0  0  1  0  0  0  0  0  0  0  0  0
    8.9282   -2.2500    0.0000 C   0  0  1  0  0  0  0  0  0  0  0  0
    8.0622   -0.7500    0.0000 C   0  0  1  0  0  0  0  0  0  0  0  0
    9.7942   -1.7500    0.0000 C   0  0  1  0  0  0  0  0  0  0  0  0
    9.7942   -0.7500    0.0000 C   0  0  1  0  0  0  0  0  0  0  0  0
    7.1962   -0.2500    0.0000 C   0  0  0  0  0  0  0  0  0  0  0  0
    6.3301   -1.7500    0.0000 C   0  0  0  0  0  0  0  0  0  0  0  0
    9.7942   -3.7500    0.0000 C   0  0  0  0  0  0  0  0  0  0  0  0
    5.4641   -2.2500    0.0000 C   0  0  0  0  0  0  0  0  0  0  0  0
   11.5263   -1.7500    0.0000 C   0  0  0  0  0  0  0  0  0  0  0  0
    4.5981   -1.7500    0.0000 C   0  0  0  0  0  0  0  0  0  0  0  0
    9.7942   -4.7500    0.0000 C   0  0  0  0  0  0  0  0  0  0  0  0
    6.3301    1.2500    0.0000 C   0  0  0  0  0  0  0  0  0  0  0  0
   12.3923   -2.2500    0.0000 C   0  0  0  0  0  0  0  0  0  0  0  0
    6.3301    2.2500    0.0000 C   0  0  0  0  0  0  0  0  0  0  0  0
    3.7320   -2.2500    0.0000 C   0  0  0  0  0  0  0  0  0  0  0  0
    5.4641    2.7500    0.0000 C   0  0  0  0  0  0  0  0  0  0  0  0
    2.8660   -1.7500    0.0000 C   0  0  0  0  0  0  0  0  0  0  0  0
   10.6603   -5.2500    0.0000 C   0  0  0  0  0  0  0  0  0  0  0  0
    5.4641    3.7500    0.0000 C   0  0  0  0  0  0  0  0  0  0  0  0
   13.2583   -1.7500    0.0000 C   0  0  0  0  0  0  0  0  0  0  0  0
    4.5981    4.2500    0.0000 C   0  0  0  0  0  0  0  0  0  0  0  0
    2.0000   -2.2500    0.0000 C   0  0  0  0  0  0  0  0  0  0  0  0
    4.5981    5.2500    0.0000 C   0  0  0  0  0  0  0  0  0  0  0  0
    8.0622   -2.3700    0.0000 H   0  0  0  0  0  0  0  0  0  0  0  0
    8.3913   -2.5600    0.0000 H   0  0  0  0  0  0  0  0  0  0  0  0
    8.0622   -0.1300    0.0000 H   0  0  0  0  0  0  0  0  0  0  0  0
    9.7942   -2.3700    0.0000 H   0  0  0  0  0  0  0  0  0  0  0  0
    9.7942   -0.1300    0.0000 H   0  0  0  0  0  0  0  0  0  0  0  0
    6.5856   -0.1423    0.0000 H   0  0  0  0  0  0  0  0  0  0  0  0
    6.9841   -0.8326    0.0000 H   0  0  0  0  0  0  0  0  0  0  0  0
   10.6603    0.3700    0.0000 H   0  0  0  0  0  0  0  0  0  0  0  0
    5.0656   -2.7250    0.0000 H   0  0  0  0  0  0  0  0  0  0  0  0
    5.8626   -2.7250    0.0000 H   0  0  0  0  0  0  0  0  0  0  0  0
    4.9966   -1.2750    0.0000 H   0  0  0  0  0  0  0  0  0  0  0  0
    4.1996   -1.2750    0.0000 H   0  0  0  0  0  0  0  0  0  0  0  0
    9.1836   -4.6423    0.0000 H   0  0  0  0  0  0  0  0  0  0  0  0
    9.5822   -5.3326    0.0000 H   0  0  0  0  0  0  0  0  0  0  0  0
   11.9938   -2.7250    0.0000 H   0  0  0  0  0  0  0  0  0  0  0  0
   12.7908   -2.7250    0.0000 H   0  0  0  0  0  0  0  0  0  0  0  0
    6.9407    2.1423    0.0000 H   0  0  0  0  0  0  0  0  0  0  0  0
    6.5422    2.8326    0.0000 H   0  0  0  0  0  0  0  0  0  0  0  0
    3.3335   -2.7250    0.0000 H   0  0  0  0  0  0  0  0  0  0  0  0
    4.1306   -2.7250    0.0000 H   0  0  0  0  0  0  0  0  0  0  0  0
    4.8535    2.8577    0.0000 H   0  0  0  0  0  0  0  0  0  0  0  0
    5.2520    2.1674    0.0000 H   0  0  0  0  0  0  0  0  0  0  0  0
    3.2646   -1.2750    0.0000 H   0  0  0  0  0  0  0  0  0  0  0  0
    2.4675   -1.2750    0.0000 H   0  0  0  0  0  0  0  0  0  0  0  0
   10.3503   -5.7869    0.0000 H   0  0  0  0  0  0  0  0  0  0  0  0
   11.1972   -5.5600    0.0000 H   0  0  0  0  0  0  0  0  0  0  0  0
   10.9703   -4.7131    0.0000 H   0  0  0  0  0  0  0  0  0  0  0  0
    6.0747    3.6423    0.0000 H   0  0  0  0  0  0  0  0  0  0  0  0
    5.6762    4.3326    0.0000 H   0  0  0  0  0  0  0  0  0  0  0  0
   13.5683   -2.2869    0.0000 H   0  0  0  0  0  0  0  0  0  0  0  0
   13.7953   -1.4400    0.0000 H   0  0  0  0  0  0  0  0  0  0  0  0
   12.9483   -1.2131    0.0000 H   0  0  0  0  0  0  0  0  0  0  0  0
    3.9875    4.3577    0.0000 H   0  0  0  0  0  0  0  0  0  0  0  0
    4.3860    3.6674    0.0000 H   0  0  0  0  0  0  0  0  0  0  0  0
    1.6900   -1.7131    0.0000 H   0  0  0  0  0  0  0  0  0  0  0  0
    1.4631   -2.5600    0.0000 H   0  0  0  0  0  0  0  0  0  0  0  0
    2.3100   -2.7869    0.0000 H   0  0  0  0  0  0  0  0  0  0  0  0
    5.2181    5.2500    0.0000 H   0  0  0  0  0  0  0  0  0  0  0  0
    4.5981    5.8700    0.0000 H   0  0  0  0  0  0  0  0  0  0  0  0
    3.9781    5.2500    0.0000 H   0  0  0  0  0  0  0  0  0  0  0  0
  1 13  1  0  0  0  0
  1 15  1  0  0  0  0
 11  2  1  6  0  0  0
  2 17  1  0  0  0  0
 12  3  1  1  0  0  0
  3 18  1  0  0  0  0
 14  4  1  1  0  0  0
  4 20  1  0  0  0  0
 15  5  1  1  0  0  0
  5 42  1  0  0  0  0
  6 16  1  0  0  0  0
  6 23  1  0  0  0  0
  7 17  2  0  0  0  0
  8 18  2  0  0  0  0
  9 20  2  0  0  0  0
 10 23  2  0  0  0  0
 11 12  1  0  0  0  0
 11 13  1  0  0  0  0
 11 35  1  0  0  0  0
 12 14  1  0  0  0  0
 12 36  1  0  0  0  0
 13 16  1  1  0  0  0
 13 37  1  0  0  0  0
 14 15  1  0  0  0  0
 14 38  1  0  0  0  0
 15 39  1  0  0  0  0
 16 40  1  0  0  0  0
 16 41  1  0  0  0  0
 17 19  1  0  0  0  0
 18 22  1  0  0  0  0
 19 21  1  0  0  0  0
 19 43  1  0  0  0  0
 19 44  1  0  0  0  0
 20 24  1  0  0  0  0
 21 26  1  0  0  0  0
 21 45  1  0  0  0  0
 21 46  1  0  0  0  0
 22 29  1  0  0  0  0
 22 47  1  0  0  0  0
 22 48  1  0  0  0  0
 23 25  1  0  0  0  0
 24 31  1  0  0  0  0
 24 49  1  0  0  0  0
 24 50  1  0  0  0  0
 25 27  1  0  0  0  0
 25 51  1  0  0  0  0
 25 52  1  0  0  0  0
 26 28  1  0  0  0  0
 26 53  1  0  0  0  0
 26 54  1  0  0  0  0
 27 30  1  0  0  0  0
 27 55  1  0  0  0  0
 27 56  1  0  0  0  0
 28 33  1  0  0  0  0
 28 57  1  0  0  0  0
 28 58  1  0  0  0  0
 29 59  1  0  0  0  0
 29 60  1  0  0  0  0
 29 61  1  0  0  0  0
 30 32  1  0  0  0  0
 30 62  1  0  0  0  0
 30 63  1  0  0  0  0
 31 64  1  0  0  0  0
 31 65  1  0  0  0  0
 31 66  1  0  0  0  0
 32 34  1  0  0  0  0
 32 67  1  0  0  0  0
 32 68  1  0  0  0  0
 33 69  1  0  0  0  0
 33 70  1  0  0  0  0
 33 71  1  0  0  0  0
 34 72  1  0  0  0  0
 34 73  1  0  0  0  0
 34 74  1  0  0  0  0
M  END
> <PUBCHEM_COMPOUND_CID>
90111729

> <PUBCHEM_COMPOUND_CANONICALIZED>
1

> <PUBCHEM_CACTVS_COMPLEXITY>
650

> <PUBCHEM_CACTVS_HBOND_ACCEPTOR>
10

> <PUBCHEM_CACTVS_HBOND_DONOR>
1

> <PUBCHEM_CACTVS_ROTATABLE_BOND>
19

> <PUBCHEM_CACTVS_SUBSKEYS>
AAADcfB4PAAAAAAAAAAAAAAAAAAAAAAAAAAkAAAAAAAAAAAAAAAAGgAACAAACBSwgAMCCAAABgAIAACQCAAAAAAAAAAAAAEAAAAREBIAAAACQAAFAAAHAAHIaAwAAAAAAAAAAAAAAAAAAAAAAAAAAAAAAA==

> <PUBCHEM_IUPAC_OPENEYE_NAME>
[(2R,3R,4S,5S,6R)-3-hexanoyloxy-6-hydroxy-4,5-di(propanoyloxy)tetrahydropyran-2-yl]methyl hexanoate

> <PUBCHEM_IUPAC_CAS_NAME>
hexanoic acid [(2R,3R,4S,5S,6R)-6-hydroxy-3-(1-oxohexoxy)-4,5-bis(1-oxopropoxy)-2-oxanyl]methyl ester

> <PUBCHEM_IUPAC_NAME_MARKUP>
[(2<I>R</I>,3<I>R</I>,4<I>S</I>,5<I>S</I>,6<I>R</I>)-3-hexanoyloxy-6-hydroxy-4,5-di(propanoyloxy)oxan-2-yl]methyl hexanoate

> <PUBCHEM_IUPAC_NAME>
[(2R,3R,4S,5S,6R)-3-hexanoyloxy-6-hydroxy-4,5-di(propanoyloxy)oxan-2-yl]methyl hexanoate

> <PUBCHEM_IUPAC_SYSTEMATIC_NAME>
[(2R,3R,4S,5S,6R)-3-hexanoyloxy-6-oxidanyl-4,5-di(propanoyloxy)oxan-2-yl]methyl hexanoate

> <PUBCHEM_IUPAC_TRADITIONAL_NAME>
hexanoic acid [(2R,3R,4S,5S,6R)-3-caproyloxy-6-hydroxy-4,5-dipropionyloxy-tetrahydropyran-2-yl]methyl ester

> <PUBCHEM_IUPAC_INCHI>
InChI=1S/C24H40O10/c1-5-9-11-13-19(27)30-15-16-21(34-20(28)14-12-10-6-2)22(32-17(25)7-3)23(24(29)31-16)33-18(26)8-4/h16,21-24,29H,5-15H2,1-4H3/t16-,21-,22+,23+,24-/m1/s1

> <PUBCHEM_IUPAC_INCHIKEY>
NJLDIOHCFAQKGM-CBELIFPFSA-N

> <PUBCHEM_XLOGP3_AA>
3.9

> <PUBCHEM_EXACT_MASS>
488.26214747

> <PUBCHEM_MOLECULAR_FORMULA>
C24H40O10

> <PUBCHEM_MOLECULAR_WEIGHT>
488.6

> <PUBCHEM_OPENEYE_CAN_SMILES>
CCCCCC(=O)OCC1C(C(C(C(O1)O)OC(=O)CC)OC(=O)CC)OC(=O)CCCCC

> <PUBCHEM_OPENEYE_ISO_SMILES>
CCCCCC(=O)OC[C@@H]1[C@H]([C@@H]([C@@H]([C@@H](O1)O)OC(=O)CC)OC(=O)CC)OC(=O)CCCCC

> <PUBCHEM_CACTVS_TPSA>
135

> <PUBCHEM_MONOISOTOPIC_WEIGHT>
488.26214747

> <PUBCHEM_TOTAL_CHARGE>
0

> <PUBCHEM_HEAVY_ATOM_COUNT>
34

> <PUBCHEM_ATOM_DEF_STEREO_COUNT>
5

> <PUBCHEM_ATOM_UDEF_STEREO_COUNT>
0

> <PUBCHEM_BOND_DEF_STEREO_COUNT>
0

> <PUBCHEM_BOND_UDEF_STEREO_COUNT>
0

> <PUBCHEM_ISOTOPIC_ATOM_COUNT>
0

> <PUBCHEM_COMPONENT_COUNT>
1

> <PUBCHEM_CACTVS_TAUTO_COUNT>
-1

> <PUBCHEM_COORDINATE_TYPE>
1
5
255

> <PUBCHEM_BONDANNOTATIONS>
13  16  5
11  2  6
12  3  5
14  4  5
15  5  5

$$$$
