 
  -OEChem-10192103472D

 32 31  0     1  0  0  0  0  0999 V2000
    3.9030   -0.3175    0.0000 S   0  0  0  0  0  0  0  0  0  0  0  0
    3.4030    0.5485    0.0000 P   0  0  0  0  0  0  0  0  0  0  0  0
    4.2690    1.0485    0.0000 O   0  0  0  0  0  0  0  0  0  0  0  0
    2.5369    0.0485    0.0000 O   0  0  0  0  0  0  0  0  0  0  0  0
    2.9030    1.4145    0.0000 O   0  0  0  0  0  0  0  0  0  0  0  0
    5.1350    0.5485    0.0000 C   0  0  3  0  0  0  0  0  0  0  0  0
    6.0010    1.0485    0.0000 C   0  0  0  0  0  0  0  0  0  0  0  0
    5.1350   -0.4515    0.0000 C   0  0  0  0  0  0  0  0  0  0  0  0
    6.8671    0.5485    0.0000 C   0  0  0  0  0  0  0  0  0  0  0  0
    6.0010   -0.9515    0.0000 C   0  0  0  0  0  0  0  0  0  0  0  0
    7.7331    1.0485    0.0000 C   0  0  0  0  0  0  0  0  0  0  0  0
    6.0010   -1.9515    0.0000 C   0  0  0  0  0  0  0  0  0  0  0  0
    8.5991    0.5485    0.0000 C   0  0  0  0  0  0  0  0  0  0  0  0
    5.1350    1.1685    0.0000 H   0  0  0  0  0  0  0  0  0  0  0  0
    6.3996    1.5235    0.0000 H   0  0  0  0  0  0  0  0  0  0  0  0
    5.6025    1.5235    0.0000 H   0  0  0  0  0  0  0  0  0  0  0  0
    4.5244   -0.3438    0.0000 H   0  0  0  0  0  0  0  0  0  0  0  0
    4.9230   -1.0341    0.0000 H   0  0  0  0  0  0  0  0  0  0  0  0
    6.4685    0.0736    0.0000 H   0  0  0  0  0  0  0  0  0  0  0  0
    7.2656    0.0736    0.0000 H   0  0  0  0  0  0  0  0  0  0  0  0
    6.6116   -1.0591    0.0000 H   0  0  0  0  0  0  0  0  0  0  0  0
    6.2131   -0.3689    0.0000 H   0  0  0  0  0  0  0  0  0  0  0  0
    8.1316    1.5235    0.0000 H   0  0  0  0  0  0  0  0  0  0  0  0
    7.3346    1.5235    0.0000 H   0  0  0  0  0  0  0  0  0  0  0  0
    5.3810   -1.9515    0.0000 H   0  0  0  0  0  0  0  0  0  0  0  0
    6.0010   -2.5715    0.0000 H   0  0  0  0  0  0  0  0  0  0  0  0
    6.6210   -1.9515    0.0000 H   0  0  0  0  0  0  0  0  0  0  0  0
    8.2891    0.0116    0.0000 H   0  0  0  0  0  0  0  0  0  0  0  0
    9.1360    0.2385    0.0000 H   0  0  0  0  0  0  0  0  0  0  0  0
    8.9091    1.0855    0.0000 H   0  0  0  0  0  0  0  0  0  0  0  0
    2.0000    0.3585    0.0000 H   0  0  0  0  0  0  0  0  0  0  0  0
    3.2130    1.9515    0.0000 H   0  0  0  0  0  0  0  0  0  0  0  0
  1  2  2  0  0  0  0
  2  3  1  0  0  0  0
  2  4  1  0  0  0  0
  2  5  1  0  0  0  0
  3  6  1  0  0  0  0
  4 31  1  0  0  0  0
  5 32  1  0  0  0  0
  6  7  1  0  0  0  0
  6  8  1  0  0  0  0
  6 14  1  0  0  0  0
  7  9  1  0  0  0  0
  7 15  1  0  0  0  0
  7 16  1  0  0  0  0
  8 10  1  0  0  0  0
  8 17  1  0  0  0  0
  8 18  1  0  0  0  0
  9 11  1  0  0  0  0
  9 19  1  0  0  0  0
  9 20  1  0  0  0  0
 10 12  1  0  0  0  0
 10 21  1  0  0  0  0
 10 22  1  0  0  0  0
 11 13  1  0  0  0  0
 11 23  1  0  0  0  0
 11 24  1  0  0  0  0
 12 25  1  0  0  0  0
 12 26  1  0  0  0  0
 12 27  1  0  0  0  0
 13 28  1  0  0  0  0
 13 29  1  0  0  0  0
 13 30  1  0  0  0  0
M  END
> <PUBCHEM_COMPOUND_CID>
137381155

> <PUBCHEM_COMPOUND_CANONICALIZED>
1

> <PUBCHEM_CACTVS_COMPLEXITY>
169

> <PUBCHEM_CACTVS_HBOND_ACCEPTOR>
4

> <PUBCHEM_CACTVS_HBOND_DONOR>
2

> <PUBCHEM_CACTVS_ROTATABLE_BOND>
7

> <PUBCHEM_CACTVS_SUBSKEYS>
AAADceBwMAJAAAAAAAAAAAAAAAAAAAAAAAAAAAAAAAAAAAAAAAAAGgAACCAACBSggAICAAAAARAAAAAAAAAAAAAAAAAAAAAAAAAAAAIAAAAAAAAEAAAAAAGAgIAAAAAAAAAAAAAAAAAAAAAAAAAAAAAAAA==

> <PUBCHEM_IUPAC_OPENEYE_NAME>
dihydroxy-(1-propylpentoxy)-thioxo-lambda5-phosphane

> <PUBCHEM_IUPAC_CAS_NAME>
dihydroxy-octan-4-yloxy-sulfanylidenephosphorane

> <PUBCHEM_IUPAC_NAME_MARKUP>
dihydroxy-octan-4-yloxy-sulfanylidene-&lambda;<SUP>5</SUP>-phosphane

> <PUBCHEM_IUPAC_NAME>
dihydroxy-octan-4-yloxy-sulfanylidene-lambda5-phosphane

> <PUBCHEM_IUPAC_SYSTEMATIC_NAME>
octan-4-yloxy-bis(oxidanyl)-sulfanylidene-lambda5-phosphane

> <PUBCHEM_IUPAC_TRADITIONAL_NAME>
dihydroxy-(1-propylpentoxy)-thioxo-phosphorane

> <PUBCHEM_IUPAC_INCHI>
InChI=1S/C8H19O3PS/c1-3-5-7-8(6-4-2)11-12(9,10)13/h8H,3-7H2,1-2H3,(H2,9,10,13)

> <PUBCHEM_IUPAC_INCHIKEY>
XGKAWSCTGDCODE-UHFFFAOYSA-N

> <PUBCHEM_XLOGP3_AA>
3.3

> <PUBCHEM_EXACT_MASS>
226.07925264

> <PUBCHEM_MOLECULAR_FORMULA>
C8H19O3PS

> <PUBCHEM_MOLECULAR_WEIGHT>
226.28

> <PUBCHEM_OPENEYE_CAN_SMILES>
CCCCC(CCC)OP(=S)(O)O

> <PUBCHEM_OPENEYE_ISO_SMILES>
CCCCC(CCC)OP(=S)(O)O

> <PUBCHEM_CACTVS_TPSA>
81.8

> <PUBCHEM_MONOISOTOPIC_WEIGHT>
226.07925264

> <PUBCHEM_TOTAL_CHARGE>
0

> <PUBCHEM_HEAVY_ATOM_COUNT>
13

> <PUBCHEM_ATOM_DEF_STEREO_COUNT>
0

> <PUBCHEM_ATOM_UDEF_STEREO_COUNT>
1

> <PUBCHEM_BOND_DEF_STEREO_COUNT>
0

> <PUBCHEM_BOND_UDEF_STEREO_COUNT>
0

> <PUBCHEM_ISOTOPIC_ATOM_COUNT>
0

> <PUBCHEM_COMPONENT_COUNT>
1

> <PUBCHEM_CACTVS_TAUTO_COUNT>
-1

> <PUBCHEM_COORDINATE_TYPE>
1
5
255

> <PUBCHEM_BONDANNOTATIONS>
6  8  3

$$$$
