 
  -OEChem-10192104172D

 15 15  0     0  0  0  0  0  0999 V2000
    3.4118   -0.3952    0.0000 S   0  0  0  0  0  0  0  0  0  0  0  0
    5.9809   -0.0861    0.0000 O   0  0  0  0  0  0  0  0  0  0  0  0
    2.4608   -0.7042    0.0000 O   0  0  0  0  0  0  0  0  0  0  0  0
    3.1028    0.5559    0.0000 O   0  0  0  0  0  0  0  0  0  0  0  0
    3.7208   -1.3462    0.0000 O   0  0  0  0  0  0  0  0  0  0  0  0
    5.1719   -1.6739    0.0000 O   0  5  0  0  0  0  0  0  0  0  0  0
    5.1719   -0.6739    0.0000 N   0  3  0  0  0  0  0  0  0  0  0  0
    5.6719    0.8649    0.0000 N   0  0  0  0  0  0  0  0  0  0  0  0
    4.3629   -0.0861    0.0000 C   0  0  0  0  0  0  0  0  0  0  0  0
    4.6719    0.8649    0.0000 C   0  0  0  0  0  0  0  0  0  0  0  0
    4.0841    1.6739    0.0000 C   0  0  0  0  0  0  0  0  0  0  0  0
    4.5857    2.0384    0.0000 H   0  0  0  0  0  0  0  0  0  0  0  0
    3.7197    2.1755    0.0000 H   0  0  0  0  0  0  0  0  0  0  0  0
    3.5825    1.3095    0.0000 H   0  0  0  0  0  0  0  0  0  0  0  0
    2.0000   -0.2893    0.0000 H   0  0  0  0  0  0  0  0  0  0  0  0
  1  3  1  0  0  0  0
  1  4  2  0  0  0  0
  1  5  2  0  0  0  0
  1  9  1  0  0  0  0
  2  7  1  0  0  0  0
  2  8  1  0  0  0  0
  3 15  1  0  0  0  0
  6  7  1  0  0  0  0
  7  9  2  0  0  0  0
  8 10  2  0  0  0  0
  9 10  1  0  0  0  0
 10 11  1  0  0  0  0
 11 12  1  0  0  0  0
 11 13  1  0  0  0  0
 11 14  1  0  0  0  0
M  CHG  2   6  -1   7   1
M  END
> <PUBCHEM_COMPOUND_CID>
44542595

> <PUBCHEM_COMPOUND_CANONICALIZED>
1

> <PUBCHEM_CACTVS_COMPLEXITY>
233

> <PUBCHEM_CACTVS_HBOND_ACCEPTOR>
6

> <PUBCHEM_CACTVS_HBOND_DONOR>
1

> <PUBCHEM_CACTVS_ROTATABLE_BOND>
1

> <PUBCHEM_CACTVS_SUBSKEYS>
AAADcYBDOABAAAAAAAAAAAAAAAAAAWAAAAAAAAAAAAAAAAABgAAAHAQECAAACAiBVgACgRAQYIKhAQRgQ3BIAEQAEAAgEBQwUAIAQAAAAAAAAAAAAIAAAAAAAAAAAAAAAAAAAAAAAAAAAAAAAAAAAAAAAA==

> <PUBCHEM_IUPAC_OPENEYE_NAME>
4-methyl-2-oxido-1,2,5-oxadiazol-2-ium-3-sulfonic acid

> <PUBCHEM_IUPAC_CAS_NAME>
4-methyl-2-oxido-1,2,5-oxadiazol-2-ium-3-sulfonic acid

> <PUBCHEM_IUPAC_NAME_MARKUP>
4-methyl-2-oxido-1,2,5-oxadiazol-2-ium-3-sulfonic acid

> <PUBCHEM_IUPAC_NAME>
4-methyl-2-oxido-1,2,5-oxadiazol-2-ium-3-sulfonic acid

> <PUBCHEM_IUPAC_SYSTEMATIC_NAME>
4-methyl-2-oxidanidyl-1,2,5-oxadiazol-2-ium-3-sulfonic acid

> <PUBCHEM_IUPAC_TRADITIONAL_NAME>
4-methyl-2-oxido-furazan-2-ium-3-sulfonic acid

> <PUBCHEM_IUPAC_INCHI>
InChI=1S/C3H4N2O5S/c1-2-3(11(7,8)9)5(6)10-4-2/h1H3,(H,7,8,9)

> <PUBCHEM_IUPAC_INCHIKEY>
USSJGBJAEVGAPX-UHFFFAOYSA-N

> <PUBCHEM_XLOGP3>
0.8

> <PUBCHEM_EXACT_MASS>
179.98409241

> <PUBCHEM_MOLECULAR_FORMULA>
C3H4N2O5S

> <PUBCHEM_MOLECULAR_WEIGHT>
180.14

> <PUBCHEM_OPENEYE_CAN_SMILES>
CC1=NO[N+](=C1S(=O)(=O)O)[O-]

> <PUBCHEM_OPENEYE_ISO_SMILES>
CC1=NO[N+](=C1S(=O)(=O)O)[O-]

> <PUBCHEM_CACTVS_TPSA>
114

> <PUBCHEM_MONOISOTOPIC_WEIGHT>
179.98409241

> <PUBCHEM_TOTAL_CHARGE>
0

> <PUBCHEM_HEAVY_ATOM_COUNT>
11

> <PUBCHEM_ATOM_DEF_STEREO_COUNT>
0

> <PUBCHEM_ATOM_UDEF_STEREO_COUNT>
0

> <PUBCHEM_BOND_DEF_STEREO_COUNT>
0

> <PUBCHEM_BOND_UDEF_STEREO_COUNT>
0

> <PUBCHEM_ISOTOPIC_ATOM_COUNT>
0

> <PUBCHEM_COMPONENT_COUNT>
1

> <PUBCHEM_CACTVS_TAUTO_COUNT>
-1

> <PUBCHEM_COORDINATE_TYPE>
1
5
255

> <PUBCHEM_BONDANNOTATIONS>
2  7  8
2  8  8
7  9  8
8  10  8
9  10  8

$$$$
