 
  -OEChem-10192104282D

 55 56  0     1  0  0  0  0  0999 V2000
    7.1962   -1.1550    0.0000 O   0  0  0  0  0  0  0  0  0  0  0  0
    8.9282   -1.1550    0.0000 O   0  0  0  0  0  0  0  0  0  0  0  0
    5.4641   -3.1550    0.0000 O   0  0  0  0  0  0  0  0  0  0  0  0
    7.1962   -4.1550    0.0000 O   0  0  0  0  0  0  0  0  0  0  0  0
    8.9282   -3.1550    0.0000 O   0  0  0  0  0  0  0  0  0  0  0  0
    5.4641   -0.1550    0.0000 O   0  0  0  0  0  0  0  0  0  0  0  0
    4.2320    2.7110    0.0000 O   0  0  0  0  0  0  0  0  0  0  0  0
    3.7320   -0.1550    0.0000 O   0  0  0  0  0  0  0  0  0  0  0  0
    2.0000    3.8450    0.0000 O   0  0  0  0  0  0  0  0  0  0  0  0
    3.7320    3.8450    0.0000 O   0  0  0  0  0  0  0  0  0  0  0  0
    6.3301   -2.6550    0.0000 C   0  0  1  0  0  0  0  0  0  0  0  0
    7.1962   -3.1550    0.0000 C   0  0  1  0  0  0  0  0  0  0  0  0
    6.3301   -1.6550    0.0000 C   0  0  1  0  0  0  0  0  0  0  0  0
    8.0622   -2.6550    0.0000 C   0  0  2  0  0  0  0  0  0  0  0  0
    8.0622   -1.6550    0.0000 C   0  0  1  0  0  0  0  0  0  0  0  0
    5.4641   -1.1550    0.0000 C   0  0  0  0  0  0  0  0  0  0  0  0
    3.7320    1.8450    0.0000 C   0  0  1  0  0  0  0  0  0  0  0  0
    8.9282   -0.1550    0.0000 C   0  0  0  0  0  0  0  0  0  0  0  0
    4.5981    1.3450    0.0000 C   0  0  0  0  0  0  0  0  0  0  0  0
    4.5981    0.3450    0.0000 C   0  0  0  0  0  0  0  0  0  0  0  0
    2.8660    2.3450    0.0000 C   0  0  0  0  0  0  0  0  0  0  0  0
    3.2320    0.9790    0.0000 C   0  0  0  0  0  0  0  0  0  0  0  0
    9.7942    0.3450    0.0000 C   0  0  0  0  0  0  0  0  0  0  0  0
    2.8660    3.3450    0.0000 C   0  0  0  0  0  0  0  0  0  0  0  0
    9.7942    1.3450    0.0000 C   0  0  0  0  0  0  0  0  0  0  0  0
   10.6603   -0.1550    0.0000 C   0  0  0  0  0  0  0  0  0  0  0  0
   10.6603    1.8450    0.0000 C   0  0  0  0  0  0  0  0  0  0  0  0
   11.5263    0.3450    0.0000 C   0  0  0  0  0  0  0  0  0  0  0  0
   11.5263    1.3450    0.0000 C   0  0  0  0  0  0  0  0  0  0  0  0
    6.3301   -3.2750    0.0000 H   0  0  0  0  0  0  0  0  0  0  0  0
    6.6592   -3.4650    0.0000 H   0  0  0  0  0  0  0  0  0  0  0  0
    6.3301   -1.0350    0.0000 H   0  0  0  0  0  0  0  0  0  0  0  0
    8.0622   -3.2750    0.0000 H   0  0  0  0  0  0  0  0  0  0  0  0
    8.0622   -1.0350    0.0000 H   0  0  0  0  0  0  0  0  0  0  0  0
    4.8535   -1.0473    0.0000 H   0  0  0  0  0  0  0  0  0  0  0  0
    5.2520   -1.7376    0.0000 H   0  0  0  0  0  0  0  0  0  0  0  0
    4.9272   -2.8450    0.0000 H   0  0  0  0  0  0  0  0  0  0  0  0
    6.6592   -4.4650    0.0000 H   0  0  0  0  0  0  0  0  0  0  0  0
    9.4651   -2.8450    0.0000 H   0  0  0  0  0  0  0  0  0  0  0  0
    5.2087    1.2373    0.0000 H   0  0  0  0  0  0  0  0  0  0  0  0
    4.8101    1.9276    0.0000 H   0  0  0  0  0  0  0  0  0  0  0  0
    8.7162    0.4276    0.0000 H   0  0  0  0  0  0  0  0  0  0  0  0
    8.3176   -0.2627    0.0000 H   0  0  0  0  0  0  0  0  0  0  0  0
    2.2554    2.4527    0.0000 H   0  0  0  0  0  0  0  0  0  0  0  0
    2.6540    1.7624    0.0000 H   0  0  0  0  0  0  0  0  0  0  0  0
    2.6951    1.2890    0.0000 H   0  0  0  0  0  0  0  0  0  0  0  0
    2.9220    0.4420    0.0000 H   0  0  0  0  0  0  0  0  0  0  0  0
    3.7690    0.6690    0.0000 H   0  0  0  0  0  0  0  0  0  0  0  0
    4.8520    2.7110    0.0000 H   0  0  0  0  0  0  0  0  0  0  0  0
    9.2573    1.6550    0.0000 H   0  0  0  0  0  0  0  0  0  0  0  0
   10.6603   -0.7750    0.0000 H   0  0  0  0  0  0  0  0  0  0  0  0
   10.6603    2.4650    0.0000 H   0  0  0  0  0  0  0  0  0  0  0  0
   12.0632    0.0350    0.0000 H   0  0  0  0  0  0  0  0  0  0  0  0
   12.0632    1.6550    0.0000 H   0  0  0  0  0  0  0  0  0  0  0  0
    2.0000    4.4650    0.0000 H   0  0  0  0  0  0  0  0  0  0  0  0
  1 13  1  0  0  0  0
  1 15  1  0  0  0  0
 15  2  1  1  0  0  0
  2 18  1  0  0  0  0
 11  3  1  6  0  0  0
  3 37  1  0  0  0  0
 12  4  1  1  0  0  0
  4 38  1  0  0  0  0
 14  5  1  6  0  0  0
  5 39  1  0  0  0  0
  6 16  1  0  0  0  0
  6 20  1  0  0  0  0
 17  7  1  6  0  0  0
  7 49  1  0  0  0  0
  8 20  2  0  0  0  0
  9 24  1  0  0  0  0
  9 55  1  0  0  0  0
 10 24  2  0  0  0  0
 11 12  1  0  0  0  0
 11 13  1  0  0  0  0
 11 30  1  0  0  0  0
 12 14  1  0  0  0  0
 12 31  1  0  0  0  0
 13 16  1  1  0  0  0
 13 32  1  0  0  0  0
 14 15  1  0  0  0  0
 14 33  1  0  0  0  0
 15 34  1  0  0  0  0
 16 35  1  0  0  0  0
 16 36  1  0  0  0  0
 17 19  1  0  0  0  0
 17 21  1  0  0  0  0
 17 22  1  0  0  0  0
 18 23  1  0  0  0  0
 18 42  1  0  0  0  0
 18 43  1  0  0  0  0
 19 20  1  0  0  0  0
 19 40  1  0  0  0  0
 19 41  1  0  0  0  0
 21 24  1  0  0  0  0
 21 44  1  0  0  0  0
 21 45  1  0  0  0  0
 22 46  1  0  0  0  0
 22 47  1  0  0  0  0
 22 48  1  0  0  0  0
 23 25  2  0  0  0  0
 23 26  1  0  0  0  0
 25 27  1  0  0  0  0
 25 50  1  0  0  0  0
 26 28  2  0  0  0  0
 26 51  1  0  0  0  0
 27 29  2  0  0  0  0
 27 52  1  0  0  0  0
 28 29  1  0  0  0  0
 28 53  1  0  0  0  0
 29 54  1  0  0  0  0
M  END
> <PUBCHEM_COMPOUND_CID>
38363079

> <PUBCHEM_COMPOUND_CANONICALIZED>
1

> <PUBCHEM_CACTVS_COMPLEXITY>
549

> <PUBCHEM_CACTVS_HBOND_ACCEPTOR>
10

> <PUBCHEM_CACTVS_HBOND_DONOR>
5

> <PUBCHEM_CACTVS_ROTATABLE_BOND>
10

> <PUBCHEM_CACTVS_SUBSKEYS>
AAADceB4PAAAAAAAAAAAAAAAAAAAAAAAAAA0QAAAAAAAAAABAAAAGgAACAAADFSwmAMyCIAABgCIAiDSCAACAAAgAAAIiAEACIgZNjaAMRiicAAl4AEPqAfI5iwOAAAAAAAAAAAAAAAAAAAAAAAAAAAAAA==

> <PUBCHEM_IUPAC_OPENEYE_NAME>
(3R)-5-[[(2R,3S,4S,5R,6R)-6-benzyloxy-3,4,5-trihydroxy-tetrahydropyran-2-yl]methoxy]-3-hydroxy-3-methyl-5-oxo-pentanoic acid

> <PUBCHEM_IUPAC_CAS_NAME>
(3R)-3-hydroxy-3-methyl-5-oxo-5-[[(2R,3S,4S,5R,6R)-3,4,5-trihydroxy-6-phenylmethoxy-2-oxanyl]methoxy]pentanoic acid

> <PUBCHEM_IUPAC_NAME_MARKUP>
(3<I>R</I>)-3-hydroxy-3-methyl-5-oxo-5-[[(2<I>R</I>,3<I>S</I>,4<I>S</I>,5<I>R</I>,6<I>R</I>)-3,4,5-trihydroxy-6-phenylmethoxyoxan-2-yl]methoxy]pentanoic acid

> <PUBCHEM_IUPAC_NAME>
(3R)-3-hydroxy-3-methyl-5-oxo-5-[[(2R,3S,4S,5R,6R)-3,4,5-trihydroxy-6-phenylmethoxyoxan-2-yl]methoxy]pentanoic acid

> <PUBCHEM_IUPAC_SYSTEMATIC_NAME>
(3R)-3-methyl-3-oxidanyl-5-oxidanylidene-5-[[(2R,3S,4S,5R,6R)-3,4,5-tris(oxidanyl)-6-phenylmethoxy-oxan-2-yl]methoxy]pentanoic acid

> <PUBCHEM_IUPAC_TRADITIONAL_NAME>
(3R)-5-[[(2R,3S,4S,5R,6R)-6-benzoxy-3,4,5-trihydroxy-tetrahydropyran-2-yl]methoxy]-3-hydroxy-5-keto-3-methyl-valeric acid

> <PUBCHEM_IUPAC_INCHI>
InChI=1S/C19H26O10/c1-19(26,7-13(20)21)8-14(22)27-10-12-15(23)16(24)17(25)18(29-12)28-9-11-5-3-2-4-6-11/h2-6,12,15-18,23-26H,7-10H2,1H3,(H,20,21)/t12-,15-,16+,17-,18-,19-/m1/s1

> <PUBCHEM_IUPAC_INCHIKEY>
WMJMUBCEXZDILC-QDBAFKKHSA-N

> <PUBCHEM_XLOGP3>
-1.7

> <PUBCHEM_EXACT_MASS>
414.15259702

> <PUBCHEM_MOLECULAR_FORMULA>
C19H26O10

> <PUBCHEM_MOLECULAR_WEIGHT>
414.4

> <PUBCHEM_OPENEYE_CAN_SMILES>
CC(CC(=O)O)(CC(=O)OCC1C(C(C(C(O1)OCC2=CC=CC=C2)O)O)O)O

> <PUBCHEM_OPENEYE_ISO_SMILES>
C[C@@](CC(=O)O)(CC(=O)OC[C@@H]1[C@H]([C@@H]([C@H]([C@@H](O1)OCC2=CC=CC=C2)O)O)O)O

> <PUBCHEM_CACTVS_TPSA>
163

> <PUBCHEM_MONOISOTOPIC_WEIGHT>
414.15259702

> <PUBCHEM_TOTAL_CHARGE>
0

> <PUBCHEM_HEAVY_ATOM_COUNT>
29

> <PUBCHEM_ATOM_DEF_STEREO_COUNT>
6

> <PUBCHEM_ATOM_UDEF_STEREO_COUNT>
0

> <PUBCHEM_BOND_DEF_STEREO_COUNT>
0

> <PUBCHEM_BOND_UDEF_STEREO_COUNT>
0

> <PUBCHEM_ISOTOPIC_ATOM_COUNT>
0

> <PUBCHEM_COMPONENT_COUNT>
1

> <PUBCHEM_CACTVS_TAUTO_COUNT>
-1

> <PUBCHEM_COORDINATE_TYPE>
1
5
255

> <PUBCHEM_BONDANNOTATIONS>
13  16  5
15  2  5
23  25  8
23  26  8
25  27  8
26  28  8
27  29  8
28  29  8
11  3  6
12  4  5
14  5  6
17  7  6

$$$$
