 
  -OEChem-10192103362D

 77 79  0     1  0  0  0  0  0999 V2000
    7.7611   -0.1707    0.0000 O   0  0  0  0  0  0  0  0  0  0  0  0
    6.5010    1.0893    0.0000 O   0  0  0  0  0  0  0  0  0  0  0  0
    6.0010   -1.4495    0.0000 O   0  0  0  0  0  0  0  0  0  0  0  0
    4.2690   -1.4495    0.0000 O   0  0  0  0  0  0  0  0  0  0  0  0
    4.6042   -0.6707    0.0000 O   0  0  0  0  0  0  0  0  0  0  0  0
    9.6632   -0.7888    0.0000 O   0  0  0  0  0  0  0  0  0  0  0  0
    8.8316    3.1238    0.0000 O   0  0  0  0  0  0  0  0  0  0  0  0
   11.1495    0.5495    0.0000 O   0  0  0  0  0  0  0  0  0  0  0  0
    4.2690   -4.4495    0.0000 O   0  0  0  0  0  0  0  0  0  0  0  0
    2.5369   -3.4495    0.0000 O   0  0  0  0  0  0  0  0  0  0  0  0
    3.4978   -0.2218    0.0000 O   0  0  0  0  0  0  0  0  0  0  0  0
    2.5369   -0.4495    0.0000 O   0  0  0  0  0  0  0  0  0  0  0  0
    7.3453    1.7856    0.0000 N   0  0  0  0  0  0  0  0  0  0  0  0
    6.0010   -3.4495    0.0000 N   0  0  0  0  0  0  0  0  0  0  0  0
   10.7337    2.5058    0.0000 N   0  0  0  0  0  0  0  0  0  0  0  0
    6.1863    3.0727    0.0000 N   0  0  0  0  0  0  0  0  0  0  0  0
    7.4464    3.7148    0.0000 N   0  0  0  0  0  0  0  0  0  0  0  0
   11.2689    4.1531    0.0000 N   0  0  0  0  0  0  0  0  0  0  0  0
    6.0010   -0.4495    0.0000 C   0  0  3  0  0  0  0  0  0  0  0  0
    8.5043    0.4984    0.0000 C   0  0  2  0  0  0  0  0  0  0  0  0
    5.1920    0.1383    0.0000 C   0  0  1  0  0  0  0  0  0  0  0  0
    6.8100    0.1383    0.0000 C   0  0  3  0  0  0  0  0  0  0  0  0
    8.2963    1.4765    0.0000 C   0  0  2  0  0  0  0  0  0  0  0  0
    9.4553    0.1894    0.0000 C   0  0  1  0  0  0  0  0  0  0  0  0
    5.5010    1.0893    0.0000 C   0  0  2  0  0  0  0  0  0  0  0  0
    9.0395    2.1457    0.0000 C   0  0  1  0  0  0  0  0  0  0  0  0
   10.1985    0.8585    0.0000 C   0  0  2  0  0  0  0  0  0  0  0  0
    9.9906    1.8366    0.0000 C   0  0  2  0  0  0  0  0  0  0  0  0
    5.1350   -1.9495    0.0000 C   0  0  3  0  0  0  0  0  0  0  0  0
    5.1350   -2.9495    0.0000 C   0  0  3  0  0  0  0  0  0  0  0  0
    4.2690   -3.4495    0.0000 C   0  0  3  0  0  0  0  0  0  0  0  0
    3.4030   -2.9495    0.0000 C   0  0  3  0  0  0  0  0  0  0  0  0
    3.4030   -1.9495    0.0000 C   0  0  2  0  0  0  0  0  0  0  0  0
    4.9132    1.8984    0.0000 C   0  0  0  0  0  0  0  0  0  0  0  0
    4.2410    0.4473    0.0000 C   0  0  0  0  0  0  0  0  0  0  0  0
    2.5369   -1.4495    0.0000 C   0  0  0  0  0  0  0  0  0  0  0  0
    7.1374    2.7637    0.0000 C   0  0  0  0  0  0  0  0  0  0  0  0
    6.0010   -4.4495    0.0000 C   0  0  0  0  0  0  0  0  0  0  0  0
   10.5258    3.4839    0.0000 C   0  0  0  0  0  0  0  0  0  0  0  0
    6.5535   -0.7310    0.0000 H   0  0  0  0  0  0  0  0  0  0  0  0
    8.6332   -0.1081    0.0000 H   0  0  0  0  0  0  0  0  0  0  0  0
    6.9070   -0.4741    0.0000 H   0  0  0  0  0  0  0  0  0  0  0  0
    7.8356    1.0617    0.0000 H   0  0  0  0  0  0  0  0  0  0  0  0
   10.0450   -0.0022    0.0000 H   0  0  0  0  0  0  0  0  0  0  0  0
    5.7825    1.6418    0.0000 H   0  0  0  0  0  0  0  0  0  0  0  0
    8.4498    2.3373    0.0000 H   0  0  0  0  0  0  0  0  0  0  0  0
   10.6592    1.2734    0.0000 H   0  0  0  0  0  0  0  0  0  0  0  0
    9.8616    2.4431    0.0000 H   0  0  0  0  0  0  0  0  0  0  0  0
    5.1350   -1.3295    0.0000 H   0  0  0  0  0  0  0  0  0  0  0  0
    5.6720   -2.6395    0.0000 H   0  0  0  0  0  0  0  0  0  0  0  0
    4.8059   -3.7595    0.0000 H   0  0  0  0  0  0  0  0  0  0  0  0
    3.4030   -3.5695    0.0000 H   0  0  0  0  0  0  0  0  0  0  0  0
    3.4030   -1.3295    0.0000 H   0  0  0  0  0  0  0  0  0  0  0  0
    5.4148    2.2628    0.0000 H   0  0  0  0  0  0  0  0  0  0  0  0
    4.5488    2.3999    0.0000 H   0  0  0  0  0  0  0  0  0  0  0  0
    4.4117    1.5339    0.0000 H   0  0  0  0  0  0  0  0  0  0  0  0
    4.1121    1.0537    0.0000 H   0  0  0  0  0  0  0  0  0  0  0  0
    4.8564   -1.2371    0.0000 H   0  0  0  0  0  0  0  0  0  0  0  0
   10.2529   -0.9804    0.0000 H   0  0  0  0  0  0  0  0  0  0  0  0
    6.5380   -3.1395    0.0000 H   0  0  0  0  0  0  0  0  0  0  0  0
    9.2923    3.5387    0.0000 H   0  0  0  0  0  0  0  0  0  0  0  0
   11.6103    0.9643    0.0000 H   0  0  0  0  0  0  0  0  0  0  0  0
    1.9264   -1.3418    0.0000 H   0  0  0  0  0  0  0  0  0  0  0  0
    2.3249   -2.0321    0.0000 H   0  0  0  0  0  0  0  0  0  0  0  0
    3.7320   -4.7595    0.0000 H   0  0  0  0  0  0  0  0  0  0  0  0
    2.0000   -3.1395    0.0000 H   0  0  0  0  0  0  0  0  0  0  0  0
    5.3810   -4.4495    0.0000 H   0  0  0  0  0  0  0  0  0  0  0  0
    6.0010   -5.0695    0.0000 H   0  0  0  0  0  0  0  0  0  0  0  0
    6.6210   -4.4495    0.0000 H   0  0  0  0  0  0  0  0  0  0  0  0
    9.9361    3.6755    0.0000 H   0  0  0  0  0  0  0  0  0  0  0  0
    2.0000   -0.1395    0.0000 H   0  0  0  0  0  0  0  0  0  0  0  0
    6.0574    3.6792    0.0000 H   0  0  0  0  0  0  0  0  0  0  0  0
    5.7256    2.6579    0.0000 H   0  0  0  0  0  0  0  0  0  0  0  0
    7.0315    4.1755    0.0000 H   0  0  0  0  0  0  0  0  0  0  0  0
    8.0528    3.8437    0.0000 H   0  0  0  0  0  0  0  0  0  0  0  0
   11.1400    4.7595    0.0000 H   0  0  0  0  0  0  0  0  0  0  0  0
   11.8586    3.9615    0.0000 H   0  0  0  0  0  0  0  0  0  0  0  0
 20  1  1  6  0  0  0
  1 22  1  0  0  0  0
  2 22  1  0  0  0  0
  2 25  1  0  0  0  0
  3 19  1  0  0  0  0
  3 29  1  0  0  0  0
  4 29  1  0  0  0  0
  4 33  1  0  0  0  0
 21  5  1  6  0  0  0
  5 58  1  0  0  0  0
 24  6  1  1  0  0  0
  6 59  1  0  0  0  0
 26  7  1  6  0  0  0
  7 61  1  0  0  0  0
 27  8  1  6  0  0  0
  8 62  1  0  0  0  0
  9 31  1  0  0  0  0
  9 65  1  0  0  0  0
 10 32  1  0  0  0  0
 10 66  1  0  0  0  0
 11 35  2  0  0  0  0
 12 36  1  0  0  0  0
 12 71  1  0  0  0  0
 23 13  1  1  0  0  0
 13 37  2  0  0  0  0
 14 30  1  0  0  0  0
 14 38  1  0  0  0  0
 14 60  1  0  0  0  0
 28 15  1  1  0  0  0
 15 39  2  0  0  0  0
 16 37  1  0  0  0  0
 16 72  1  0  0  0  0
 16 73  1  0  0  0  0
 17 37  1  0  0  0  0
 17 74  1  0  0  0  0
 17 75  1  0  0  0  0
 18 39  1  0  0  0  0
 18 76  1  0  0  0  0
 18 77  1  0  0  0  0
 19 21  1  0  0  0  0
 19 22  1  0  0  0  0
 19 40  1  0  0  0  0
 20 23  1  0  0  0  0
 20 24  1  0  0  0  0
 20 41  1  0  0  0  0
 21 25  1  0  0  0  0
 21 35  1  0  0  0  0
 22 42  1  0  0  0  0
 23 26  1  0  0  0  0
 23 43  1  0  0  0  0
 24 27  1  0  0  0  0
 24 44  1  0  0  0  0
 25 34  1  6  0  0  0
 25 45  1  0  0  0  0
 26 28  1  0  0  0  0
 26 46  1  0  0  0  0
 27 28  1  0  0  0  0
 27 47  1  0  0  0  0
 28 48  1  0  0  0  0
 29 30  1  0  0  0  0
 29 49  1  0  0  0  0
 30 31  1  0  0  0  0
 30 50  1  0  0  0  0
 31 32  1  0  0  0  0
 31 51  1  0  0  0  0
 32 33  1  0  0  0  0
 32 52  1  0  0  0  0
 33 36  1  6  0  0  0
 33 53  1  0  0  0  0
 34 54  1  0  0  0  0
 34 55  1  0  0  0  0
 34 56  1  0  0  0  0
 35 57  1  0  0  0  0
 36 63  1  0  0  0  0
 36 64  1  0  0  0  0
 38 67  1  0  0  0  0
 38 68  1  0  0  0  0
 38 69  1  0  0  0  0
 39 70  1  0  0  0  0
M  END
> <PUBCHEM_COMPOUND_CID>
129633623

> <PUBCHEM_COMPOUND_CANONICALIZED>
1

> <PUBCHEM_CACTVS_COMPLEXITY>
898

> <PUBCHEM_CACTVS_HBOND_ACCEPTOR>
15

> <PUBCHEM_CACTVS_HBOND_DONOR>
11

> <PUBCHEM_CACTVS_ROTATABLE_BOND>
9

> <PUBCHEM_CACTVS_SUBSKEYS>
AAADcfB7vAAAAAAAAAAAAAAAAAAAASAAAAA0QAAAAAAAAAAAAAAAHgAQCAAADHzxgAcDCALABgAoAAgRpAIAAAEAAAAAAIFIAAATEBYAwAAnQAAHMAAXAAHycA8KAAAAAAAAAAACgAAUCACgAAAAAAAAAA==

> <PUBCHEM_IUPAC_OPENEYE_NAME>
N'-[(1R,2R,3S,4R,5R,6S)-4-[(4R,5S)-3-[(6S)-4,5-dihydroxy-6-(hydroxymethyl)-3-(methylamino)tetrahydropyran-2-yl]oxy-4-formyl-4-hydroxy-5-methyl-tetrahydrofuran-2-yl]oxy-3-guanidino-2,5,6-trihydroxy-cyclohexyl]formamidine

> <PUBCHEM_IUPAC_CAS_NAME>
N'-[(1R,2R,3S,4R,5R,6S)-3-(diaminomethylideneamino)-4-[[(4R,5S)-3-[[(6S)-4,5-dihydroxy-6-(hydroxymethyl)-3-(methylamino)-2-oxanyl]oxy]-4-formyl-4-hydroxy-5-methyl-2-oxolanyl]oxy]-2,5,6-trihydroxycyclohexyl]methanimidamide

> <PUBCHEM_IUPAC_NAME_MARKUP>
<I>N</I>&apos;-[(1<I>R</I>,2<I>R</I>,3<I>S</I>,4<I>R</I>,5<I>R</I>,6<I>S</I>)-3-(diaminomethylideneamino)-4-[(4<I>R</I>,5<I>S</I>)-3-[(6<I>S</I>)-4,5-dihydroxy-6-(hydroxymethyl)-3-(methylamino)oxan-2-yl]oxy-4-formyl-4-hydroxy-5-methyloxolan-2-yl]oxy-2,5,6-trihydroxycyclohexyl]methanimidamide

> <PUBCHEM_IUPAC_NAME>
N'-[(1R,2R,3S,4R,5R,6S)-3-(diaminomethylideneamino)-4-[(4R,5S)-3-[(6S)-4,5-dihydroxy-6-(hydroxymethyl)-3-(methylamino)oxan-2-yl]oxy-4-formyl-4-hydroxy-5-methyloxolan-2-yl]oxy-2,5,6-trihydroxycyclohexyl]methanimidamide

> <PUBCHEM_IUPAC_SYSTEMATIC_NAME>
N'-[(1R,2R,3S,4R,5R,6S)-3-[bis(azanyl)methylideneamino]-4-[(4R,5S)-3-[(6S)-6-(hydroxymethyl)-3-(methylamino)-4,5-bis(oxidanyl)oxan-2-yl]oxy-4-methanoyl-5-methyl-4-oxidanyl-oxolan-2-yl]oxy-2,5,6-tris(oxidanyl)cyclohexyl]methanimidamide

> <PUBCHEM_IUPAC_TRADITIONAL_NAME>
N'-[(1R,2R,3S,4R,5R,6S)-4-[(4R,5S)-3-[(6S)-4,5-dihydroxy-3-(methylamino)-6-methylol-tetrahydropyran-2-yl]oxy-4-formyl-4-hydroxy-5-methyl-tetrahydrofuran-2-yl]oxy-3-guanidino-2,5,6-trihydroxy-cyclohexyl]formamidine

> <PUBCHEM_IUPAC_INCHI>
InChI=1S/C21H38N6O12/c1-6-21(35,4-29)17(39-18-10(25-2)14(33)11(30)7(3-28)37-18)19(36-6)38-16-9(27-20(23)24)12(31)8(26-5-22)13(32)15(16)34/h4-19,25,28,30-35H,3H2,1-2H3,(H2,22,26)(H4,23,24,27)/t6-,7-,8+,9-,10?,11?,12+,13-,14?,15+,16+,17?,18?,19?,21+/m0/s1

> <PUBCHEM_IUPAC_INCHIKEY>
QECLMYAPNRSADC-QDCSLYSYSA-N

> <PUBCHEM_XLOGP3_AA>
-7.4

> <PUBCHEM_EXACT_MASS>
566.25477067

> <PUBCHEM_MOLECULAR_FORMULA>
C21H38N6O12

> <PUBCHEM_MOLECULAR_WEIGHT>
566.6

> <PUBCHEM_OPENEYE_CAN_SMILES>
CC1C(C(C(O1)OC2C(C(C(C(C2O)O)N=CN)O)N=C(N)N)OC3C(C(C(C(O3)CO)O)O)NC)(C=O)O

> <PUBCHEM_OPENEYE_ISO_SMILES>
C[C@H]1[C@@](C(C(O1)O[C@@H]2[C@H]([C@@H]([C@H]([C@@H]([C@H]2O)O)N=CN)O)N=C(N)N)OC3C(C(C([C@@H](O3)CO)O)O)NC)(C=O)O

> <PUBCHEM_CACTVS_TPSA>
310

> <PUBCHEM_MONOISOTOPIC_WEIGHT>
566.25477067

> <PUBCHEM_TOTAL_CHARGE>
0

> <PUBCHEM_HEAVY_ATOM_COUNT>
39

> <PUBCHEM_ATOM_DEF_STEREO_COUNT>
9

> <PUBCHEM_ATOM_UDEF_STEREO_COUNT>
6

> <PUBCHEM_BOND_DEF_STEREO_COUNT>
0

> <PUBCHEM_BOND_UDEF_STEREO_COUNT>
0

> <PUBCHEM_ISOTOPIC_ATOM_COUNT>
0

> <PUBCHEM_COMPONENT_COUNT>
1

> <PUBCHEM_CACTVS_TAUTO_COUNT>
-1

> <PUBCHEM_COORDINATE_TYPE>
1
5
255

> <PUBCHEM_BONDANNOTATIONS>
20  1  6
22  1  3
32  10  3
23  13  5
30  14  3
28  15  5
25  34  6
19  3  3
29  3  3
33  36  6
21  5  6
24  6  5
26  7  6
27  8  6
31  9  3

$$$$
