 
  -OEChem-10192103492D

 16 15  0     0  0  0  0  0  0999 V2000
    3.4030   -0.8170    0.0000 P   0  0  0  0  0  0  0  0  0  0  0  0
    2.5369   -1.3170    0.0000 O   0  0  0  0  0  0  0  0  0  0  0  0
    2.9030    0.0490    0.0000 O   0  0  0  0  0  0  0  0  0  0  0  0
    3.9030   -1.6830    0.0000 O   0  0  0  0  0  0  0  0  0  0  0  0
    6.8671   -0.8170    0.0000 O   0  0  0  0  0  0  0  0  0  0  0  0
    6.0010    0.6830    0.0000 O   0  0  0  0  0  0  0  0  0  0  0  0
    4.2690    1.6830    0.0000 O   0  0  0  0  0  0  0  0  0  0  0  0
    4.2690   -0.3170    0.0000 C   0  0  0  0  0  0  0  0  0  0  0  0
    5.1350   -0.8170    0.0000 C   0  0  0  0  0  0  0  0  0  0  0  0
    6.0010   -0.3170    0.0000 C   0  0  0  0  0  0  0  0  0  0  0  0
    4.2690    0.6830    0.0000 C   0  0  0  0  0  0  0  0  0  0  0  0
    4.7365   -1.2919    0.0000 H   0  0  0  0  0  0  0  0  0  0  0  0
    5.5335   -1.2919    0.0000 H   0  0  0  0  0  0  0  0  0  0  0  0
    2.0000   -1.0070    0.0000 H   0  0  0  0  0  0  0  0  0  0  0  0
    2.2830    0.0490    0.0000 H   0  0  0  0  0  0  0  0  0  0  0  0
    7.4040   -0.5070    0.0000 H   0  0  0  0  0  0  0  0  0  0  0  0
  1  2  1  0  0  0  0
  1  3  1  0  0  0  0
  1  4  2  0  0  0  0
  1  8  1  0  0  0  0
  2 14  1  0  0  0  0
  3 15  1  0  0  0  0
  5 10  1  0  0  0  0
  5 16  1  0  0  0  0
  6 10  2  0  0  0  0
  7 11  2  0  0  0  0
  8  9  1  0  0  0  0
  8 11  2  0  0  0  0
  9 10  1  0  0  0  0
  9 12  1  0  0  0  0
  9 13  1  0  0  0  0
M  END
> <PUBCHEM_COMPOUND_CID>
91180040

> <PUBCHEM_COMPOUND_CANONICALIZED>
0

> <PUBCHEM_CACTVS_COMPLEXITY>
256

> <PUBCHEM_CACTVS_HBOND_ACCEPTOR>
6

> <PUBCHEM_CACTVS_HBOND_DONOR>
3

> <PUBCHEM_CACTVS_ROTATABLE_BOND>
3

> <PUBCHEM_CACTVS_SUBSKEYS>
AAADcYBgOAIAAAAAAAAAAAAAAAAAAAAAAAAAAAAAAAAAAAAAAAAAGggACCAACACAgAAACAAAAhCIQADQCIAAAAAgAAAAAAEAAAgAAAAAAAAAQAAAQAAAAAAAAAAAAAAAAAAAAAAAAAAAAAAAAAAAAAAAAA==

> <PUBCHEM_IUPAC_INCHI>
InChI=1S/C4H5O6P/c5-2-3(1-4(6)7)11(8,9)10/h1H2,(H,6,7)(H2,8,9,10)

> <PUBCHEM_IUPAC_INCHIKEY>
ZSXOTTXOISSCLC-UHFFFAOYSA-N

> <PUBCHEM_XLOGP3_AA>
-2

> <PUBCHEM_EXACT_MASS>
179.98237487

> <PUBCHEM_MOLECULAR_FORMULA>
C4H5O6P

> <PUBCHEM_MOLECULAR_WEIGHT>
180.05

> <PUBCHEM_OPENEYE_CAN_SMILES>
C(C(=C=O)P(=O)(O)O)C(=O)O

> <PUBCHEM_OPENEYE_ISO_SMILES>
C(C(=C=O)P(=O)(O)O)C(=O)O

> <PUBCHEM_CACTVS_TPSA>
112

> <PUBCHEM_MONOISOTOPIC_WEIGHT>
179.98237487

> <PUBCHEM_TOTAL_CHARGE>
0

> <PUBCHEM_HEAVY_ATOM_COUNT>
11

> <PUBCHEM_ATOM_DEF_STEREO_COUNT>
0

> <PUBCHEM_ATOM_UDEF_STEREO_COUNT>
0

> <PUBCHEM_BOND_DEF_STEREO_COUNT>
0

> <PUBCHEM_BOND_UDEF_STEREO_COUNT>
0

> <PUBCHEM_ISOTOPIC_ATOM_COUNT>
0

> <PUBCHEM_COMPONENT_COUNT>
1

> <PUBCHEM_CACTVS_TAUTO_COUNT>
-1

> <PUBCHEM_COORDINATE_TYPE>
1
5
255

$$$$
