 
  -OEChem-10192104432D

 98105  0     1  0  0  0  0  0999 V2000
    5.1261   -1.0184    0.0000 O   0  0  0  0  0  0  0  0  0  0  0  0
   11.4681    0.1999    0.0000 O   0  0  0  0  0  0  0  0  0  0  0  0
    6.8671   -4.0883    0.0000 O   0  0  0  0  0  0  0  0  0  0  0  0
    9.7192    3.2776    0.0000 O   0  0  0  0  0  0  0  0  0  0  0  0
    5.1350   -4.0883    0.0000 O   0  0  0  0  0  0  0  0  0  0  0  0
   10.5839    4.7783    0.0000 O   0  0  0  0  0  0  0  0  0  0  0  0
    4.4268    2.9165    0.0000 O   0  0  0  0  0  0  0  0  0  0  0  0
   12.1547   -3.7497    0.0000 O   0  0  0  0  0  0  0  0  0  0  0  0
    6.8671   -6.0883    0.0000 O   0  0  0  0  0  0  0  0  0  0  0  0
   11.4521    2.2791    0.0000 O   0  0  0  0  0  0  0  0  0  0  0  0
    5.1350   -7.0883    0.0000 O   0  0  0  0  0  0  0  0  0  0  0  0
   13.1833    3.2806    0.0000 O   0  0  0  0  0  0  0  0  0  0  0  0
    3.4030   -6.0883    0.0000 O   0  0  0  0  0  0  0  0  0  0  0  0
   13.1816    5.2806    0.0000 O   0  0  0  0  0  0  0  0  0  0  0  0
    2.5369   -4.5883    0.0000 O   0  0  0  0  0  0  0  0  0  0  0  0
   10.5822    6.7783    0.0000 O   0  0  0  0  0  0  0  0  0  0  0  0
    8.4923   -0.8707    0.0000 C   0  0  2  0  0  0  0  0  0  0  0  0
    8.0883    0.0440    0.0000 C   0  0  2  0  0  0  0  0  0  0  0  0
    7.0996   -0.0595    0.0000 C   0  0  1  0  0  0  0  0  0  0  0  0
    9.4871   -0.7692    0.0000 C   0  0  1  0  0  0  0  0  0  0  0  0
    7.7498   -1.5317    0.0000 C   0  0  0  0  0  0  0  0  0  0  0  0
    8.8334    0.7110    0.0000 C   0  0  0  0  0  0  0  0  0  0  0  0
    6.8908   -1.0314    0.0000 C   0  0  0  0  0  0  0  0  0  0  0  0
    9.6979    0.2084    0.0000 C   0  0  0  0  0  0  0  0  0  0  0  0
    6.4314    0.6845    0.0000 C   0  0  0  0  0  0  0  0  0  0  0  0
   10.1540   -1.5143    0.0000 C   0  0  0  0  0  0  0  0  0  0  0  0
    7.7618   -2.5671    0.0000 C   0  0  0  0  0  0  0  0  0  0  0  0
    8.8205    1.7525    0.0000 C   0  0  0  0  0  0  0  0  0  0  0  0
    5.9843   -1.5317    0.0000 C   0  0  0  0  0  0  0  0  0  0  0  0
   10.6095    0.7125    0.0000 C   0  0  0  0  0  0  0  0  0  0  0  0
    6.8671   -3.0883    0.0000 C   0  0  0  0  0  0  0  0  0  0  0  0
    9.7201    2.2776    0.0000 C   0  0  0  0  0  0  0  0  0  0  0  0
    5.9723   -2.5671    0.0000 C   0  0  0  0  0  0  0  0  0  0  0  0
   10.6206    1.7541    0.0000 C   0  0  0  0  0  0  0  0  0  0  0  0
    5.4530    0.4778    0.0000 C   0  0  0  0  0  0  0  0  0  0  0  0
    6.7416    1.6352    0.0000 C   0  0  0  0  0  0  0  0  0  0  0  0
   11.1328   -1.3093    0.0000 C   0  0  0  0  0  0  0  0  0  0  0  0
    9.8422   -2.4644    0.0000 C   0  0  0  0  0  0  0  0  0  0  0  0
    4.7848    1.2218    0.0000 C   0  0  0  0  0  0  0  0  0  0  0  0
    6.0734    2.3792    0.0000 C   0  0  0  0  0  0  0  0  0  0  0  0
   11.7997   -2.0544    0.0000 C   0  0  0  0  0  0  0  0  0  0  0  0
   10.5091   -3.2096    0.0000 C   0  0  0  0  0  0  0  0  0  0  0  0
    6.0010   -4.5883    0.0000 C   0  0  2  0  0  0  0  0  0  0  0  0
   10.5848    3.7783    0.0000 C   0  0  2  0  0  0  0  0  0  0  0  0
    5.0950    2.1725    0.0000 C   0  0  0  0  0  0  0  0  0  0  0  0
   11.4878   -3.0046    0.0000 C   0  0  0  0  0  0  0  0  0  0  0  0
    6.0010   -5.5883    0.0000 C   0  0  1  0  0  0  0  0  0  0  0  0
   11.4513    3.2791    0.0000 C   0  0  1  0  0  0  0  0  0  0  0  0
    5.1350   -6.0883    0.0000 C   0  0  2  0  0  0  0  0  0  0  0  0
   12.3169    3.7798    0.0000 C   0  0  2  0  0  0  0  0  0  0  0  0
    4.2690   -5.5883    0.0000 C   0  0  1  0  0  0  0  0  0  0  0  0
    4.2690   -4.5883    0.0000 C   0  0  1  0  0  0  0  0  0  0  0  0
   12.3160    4.7798    0.0000 C   0  0  1  0  0  0  0  0  0  0  0  0
   11.4495    5.2791    0.0000 C   0  0  1  0  0  0  0  0  0  0  0  0
    3.4030   -4.0883    0.0000 C   0  0  0  0  0  0  0  0  0  0  0  0
   11.4487    6.2791    0.0000 C   0  0  0  0  0  0  0  0  0  0  0  0
    8.8347   -1.6487    0.0000 H   0  0  0  0  0  0  0  0  0  0  0  0
    7.7439    0.8211    0.0000 H   0  0  0  0  0  0  0  0  0  0  0  0
    7.3223    0.5192    0.0000 H   0  0  0  0  0  0  0  0  0  0  0  0
    9.2632   -1.3473    0.0000 H   0  0  0  0  0  0  0  0  0  0  0  0
    8.3011   -2.8730    0.0000 H   0  0  0  0  0  0  0  0  0  0  0  0
    8.2809    2.0579    0.0000 H   0  0  0  0  0  0  0  0  0  0  0  0
    5.4330   -2.8730    0.0000 H   0  0  0  0  0  0  0  0  0  0  0  0
   11.1596    2.0604    0.0000 H   0  0  0  0  0  0  0  0  0  0  0  0
    5.2607   -0.1116    0.0000 H   0  0  0  0  0  0  0  0  0  0  0  0
    7.3482    1.7633    0.0000 H   0  0  0  0  0  0  0  0  0  0  0  0
   11.3261   -0.7202    0.0000 H   0  0  0  0  0  0  0  0  0  0  0  0
    9.2353   -2.5915    0.0000 H   0  0  0  0  0  0  0  0  0  0  0  0
    4.5844   -1.3201    0.0000 H   0  0  0  0  0  0  0  0  0  0  0  0
   12.0095    0.5021    0.0000 H   0  0  0  0  0  0  0  0  0  0  0  0
    4.1782    1.0937    0.0000 H   0  0  0  0  0  0  0  0  0  0  0  0
    6.2658    2.9686    0.0000 H   0  0  0  0  0  0  0  0  0  0  0  0
   12.4065   -1.9274    0.0000 H   0  0  0  0  0  0  0  0  0  0  0  0
   10.3157   -3.7986    0.0000 H   0  0  0  0  0  0  0  0  0  0  0  0
    6.0010   -3.9683    0.0000 H   0  0  0  0  0  0  0  0  0  0  0  0
   10.0476    4.0879    0.0000 H   0  0  0  0  0  0  0  0  0  0  0  0
    6.0010   -6.2083    0.0000 H   0  0  0  0  0  0  0  0  0  0  0  0
   11.9885    2.9695    0.0000 H   0  0  0  0  0  0  0  0  0  0  0  0
    4.5981   -6.3983    0.0000 H   0  0  0  0  0  0  0  0  0  0  0  0
   12.8535    4.0903    0.0000 H   0  0  0  0  0  0  0  0  0  0  0  0
    4.2690   -6.2083    0.0000 H   0  0  0  0  0  0  0  0  0  0  0  0
   12.3155    5.3998    0.0000 H   0  0  0  0  0  0  0  0  0  0  0  0
    4.2690   -3.9683    0.0000 H   0  0  0  0  0  0  0  0  0  0  0  0
   10.9123    5.5886    0.0000 H   0  0  0  0  0  0  0  0  0  0  0  0
    3.8202    2.7883    0.0000 H   0  0  0  0  0  0  0  0  0  0  0  0
   12.7616   -3.6226    0.0000 H   0  0  0  0  0  0  0  0  0  0  0  0
    3.8015   -3.6134    0.0000 H   0  0  0  0  0  0  0  0  0  0  0  0
    3.0044   -3.6134    0.0000 H   0  0  0  0  0  0  0  0  0  0  0  0
   12.0593    6.1719    0.0000 H   0  0  0  0  0  0  0  0  0  0  0  0
   11.6602    6.8619    0.0000 H   0  0  0  0  0  0  0  0  0  0  0  0
    6.8671   -6.7083    0.0000 H   0  0  0  0  0  0  0  0  0  0  0  0
   11.9893    1.9695    0.0000 H   0  0  0  0  0  0  0  0  0  0  0  0
    4.5981   -7.3983    0.0000 H   0  0  0  0  0  0  0  0  0  0  0  0
   13.7200    3.5910    0.0000 H   0  0  0  0  0  0  0  0  0  0  0  0
    3.4030   -6.7083    0.0000 H   0  0  0  0  0  0  0  0  0  0  0  0
   13.1810    5.9006    0.0000 H   0  0  0  0  0  0  0  0  0  0  0  0
    2.0000   -4.2783    0.0000 H   0  0  0  0  0  0  0  0  0  0  0  0
   10.5817    7.3983    0.0000 H   0  0  0  0  0  0  0  0  0  0  0  0
  1 29  1  0  0  0  0
  1 69  1  0  0  0  0
  2 30  1  0  0  0  0
  2 70  1  0  0  0  0
  3 31  1  0  0  0  0
 43  3  1  1  0  0  0
  4 32  1  0  0  0  0
 44  4  1  6  0  0  0
  5 43  1  0  0  0  0
  5 52  1  0  0  0  0
  6 44  1  0  0  0  0
  6 54  1  0  0  0  0
  7 45  1  0  0  0  0
  7 85  1  0  0  0  0
  8 46  1  0  0  0  0
  8 86  1  0  0  0  0
 47  9  1  6  0  0  0
  9 91  1  0  0  0  0
 48 10  1  1  0  0  0
 10 92  1  0  0  0  0
 49 11  1  1  0  0  0
 11 93  1  0  0  0  0
 50 12  1  6  0  0  0
 12 94  1  0  0  0  0
 51 13  1  6  0  0  0
 13 95  1  0  0  0  0
 53 14  1  1  0  0  0
 14 96  1  0  0  0  0
 15 55  1  0  0  0  0
 15 97  1  0  0  0  0
 16 56  1  0  0  0  0
 16 98  1  0  0  0  0
 17 18  1  0  0  0  0
 17 20  1  0  0  0  0
 17 21  1  0  0  0  0
 17 57  1  1  0  0  0
 18 19  1  0  0  0  0
 18 22  1  0  0  0  0
 18 58  1  1  0  0  0
 19 23  1  0  0  0  0
 19 25  1  1  0  0  0
 19 59  1  0  0  0  0
 20 24  1  0  0  0  0
 20 26  1  1  0  0  0
 20 60  1  0  0  0  0
 21 23  2  0  0  0  0
 21 27  1  0  0  0  0
 22 24  2  0  0  0  0
 22 28  1  0  0  0  0
 23 29  1  0  0  0  0
 24 30  1  0  0  0  0
 25 35  2  0  0  0  0
 25 36  1  0  0  0  0
 26 37  2  0  0  0  0
 26 38  1  0  0  0  0
 27 31  2  0  0  0  0
 27 61  1  0  0  0  0
 28 32  2  0  0  0  0
 28 62  1  0  0  0  0
 29 33  2  0  0  0  0
 30 34  2  0  0  0  0
 31 33  1  0  0  0  0
 32 34  1  0  0  0  0
 33 63  1  0  0  0  0
 34 64  1  0  0  0  0
 35 39  1  0  0  0  0
 35 65  1  0  0  0  0
 36 40  2  0  0  0  0
 36 66  1  0  0  0  0
 37 41  1  0  0  0  0
 37 67  1  0  0  0  0
 38 42  2  0  0  0  0
 38 68  1  0  0  0  0
 39 45  2  0  0  0  0
 39 71  1  0  0  0  0
 40 45  1  0  0  0  0
 40 72  1  0  0  0  0
 41 46  2  0  0  0  0
 41 73  1  0  0  0  0
 42 46  1  0  0  0  0
 42 74  1  0  0  0  0
 43 47  1  0  0  0  0
 43 75  1  0  0  0  0
 44 48  1  0  0  0  0
 44 76  1  0  0  0  0
 47 49  1  0  0  0  0
 47 77  1  0  0  0  0
 48 50  1  0  0  0  0
 48 78  1  0  0  0  0
 49 51  1  0  0  0  0
 49 79  1  0  0  0  0
 50 53  1  0  0  0  0
 50 80  1  0  0  0  0
 51 52  1  0  0  0  0
 51 81  1  0  0  0  0
 52 55  1  1  0  0  0
 52 83  1  0  0  0  0
 53 54  1  0  0  0  0
 53 82  1  0  0  0  0
 54 56  1  6  0  0  0
 54 84  1  0  0  0  0
 55 87  1  0  0  0  0
 55 88  1  0  0  0  0
 56 89  1  0  0  0  0
 56 90  1  0  0  0  0
M  END
> <PUBCHEM_COMPOUND_CID>
102007868

> <PUBCHEM_COMPOUND_CANONICALIZED>
1

> <PUBCHEM_CACTVS_COMPLEXITY>
1200

> <PUBCHEM_CACTVS_HBOND_ACCEPTOR>
16

> <PUBCHEM_CACTVS_HBOND_DONOR>
12

> <PUBCHEM_CACTVS_ROTATABLE_BOND>
8

> <PUBCHEM_CACTVS_SUBSKEYS>
AAADcfB8PgAAAAAAAAAAAAAAAAAAAYMAAAA0aMGCAAAYAGABVAAAGgAACAAADRSwmAMwDoAABgCAAiBCAAACCAAgIAAIiAAGCIgdNyKGMRqieCClwBUPuAfA4PwOoAABCAAYAABAAAIQADAAAQAACAAAAA==

> <PUBCHEM_IUPAC_OPENEYE_NAME>
(2S,3R,4S,5S,6R)-2-[[(4bR,5R,9bR,10R)-1,6-dihydroxy-5,10-bis(4-hydroxyphenyl)-8-[(2S,3R,4S,5S,6R)-3,4,5-trihydroxy-6-(hydroxymethyl)tetrahydropyran-2-yl]oxy-4b,5,9b,10-tetrahydroindeno[2,1-a]inden-3-yl]oxy]-6-(hydroxymethyl)tetrahydropyran-3,4,5-triol

> <PUBCHEM_IUPAC_CAS_NAME>
(2S,3R,4S,5S,6R)-2-[[(4bR,5R,9bR,10R)-1,6-dihydroxy-5,10-bis(4-hydroxyphenyl)-8-[[(2S,3R,4S,5S,6R)-3,4,5-trihydroxy-6-(hydroxymethyl)-2-oxanyl]oxy]-4b,5,9b,10-tetrahydroindeno[2,1-a]inden-3-yl]oxy]-6-(hydroxymethyl)oxane-3,4,5-triol

> <PUBCHEM_IUPAC_NAME_MARKUP>
(2<I>S</I>,3<I>R</I>,4<I>S</I>,5<I>S</I>,6<I>R</I>)-2-[[(4<I>b</I><I>R</I>,5<I>R</I>,9<I>b</I><I>R</I>,10<I>R</I>)-1,6-dihydroxy-5,10-bis(4-hydroxyphenyl)-8-[(2<I>S</I>,3<I>R</I>,4<I>S</I>,5<I>S</I>,6<I>R</I>)-3,4,5-trihydroxy-6-(hydroxymethyl)oxan-2-yl]oxy-4<I>b</I>,5,9<I>b</I>,10-tetrahydroindeno[2,1-a]inden-3-yl]oxy]-6-(hydroxymethyl)oxane-3,4,5-triol

> <PUBCHEM_IUPAC_NAME>
(2S,3R,4S,5S,6R)-2-[[(4bR,5R,9bR,10R)-1,6-dihydroxy-5,10-bis(4-hydroxyphenyl)-8-[(2S,3R,4S,5S,6R)-3,4,5-trihydroxy-6-(hydroxymethyl)oxan-2-yl]oxy-4b,5,9b,10-tetrahydroindeno[2,1-a]inden-3-yl]oxy]-6-(hydroxymethyl)oxane-3,4,5-triol

> <PUBCHEM_IUPAC_SYSTEMATIC_NAME>
(2S,3R,4S,5S,6R)-2-[[(4bR,5R,9bR,10R)-8-[(2S,3R,4S,5S,6R)-6-(hydroxymethyl)-3,4,5-tris(oxidanyl)oxan-2-yl]oxy-5,10-bis(4-hydroxyphenyl)-1,6-bis(oxidanyl)-4b,5,9b,10-tetrahydroindeno[2,1-a]inden-3-yl]oxy]-6-(hydroxymethyl)oxane-3,4,5-triol

> <PUBCHEM_IUPAC_TRADITIONAL_NAME>
(2S,3R,4S,5S,6R)-2-[[(4bR,5R,9bR,10R)-1,6-dihydroxy-5,10-bis(4-hydroxyphenyl)-8-[(2S,3R,4S,5S,6R)-3,4,5-trihydroxy-6-methylol-tetrahydropyran-2-yl]oxy-4b,5,9b,10-tetrahydroinden[2,1-a]inden-3-yl]oxy]-6-methylol-tetrahydropyran-3,4,5-triol

> <PUBCHEM_IUPAC_INCHI>
InChI=1S/C40H42O16/c41-13-25-33(47)35(49)37(51)39(55-25)53-19-9-21-29(23(45)11-19)27(15-1-5-17(43)6-2-15)31-22-10-20(54-40-38(52)36(50)34(48)26(14-42)56-40)12-24(46)30(22)28(32(21)31)16-3-7-18(44)8-4-16/h1-12,25-28,31-52H,13-14H2/t25-,26-,27-,28-,31+,32+,33-,34-,35+,36+,37-,38-,39-,40-/m1/s1

> <PUBCHEM_IUPAC_INCHIKEY>
BYOGHJOVDNNJNN-FLBOZUSKSA-N

> <PUBCHEM_XLOGP3_AA>
1

> <PUBCHEM_EXACT_MASS>
778.24728525

> <PUBCHEM_MOLECULAR_FORMULA>
C40H42O16

> <PUBCHEM_MOLECULAR_WEIGHT>
778.7

> <PUBCHEM_OPENEYE_CAN_SMILES>
C1=CC(=CC=C1C2C3C(C(C4=C3C=C(C=C4O)OC5C(C(C(C(O5)CO)O)O)O)C6=CC=C(C=C6)O)C7=C2C(=CC(=C7)OC8C(C(C(C(O8)CO)O)O)O)O)O

> <PUBCHEM_OPENEYE_ISO_SMILES>
C1=CC(=CC=C1[C@H]2[C@H]3[C@H]([C@@H](C4=C3C=C(C=C4O)O[C@H]5[C@@H]([C@H]([C@@H]([C@H](O5)CO)O)O)O)C6=CC=C(C=C6)O)C7=C2C(=CC(=C7)O[C@H]8[C@@H]([C@H]([C@@H]([C@H](O8)CO)O)O)O)O)O

> <PUBCHEM_CACTVS_TPSA>
280

> <PUBCHEM_MONOISOTOPIC_WEIGHT>
778.24728525

> <PUBCHEM_TOTAL_CHARGE>
0

> <PUBCHEM_HEAVY_ATOM_COUNT>
56

> <PUBCHEM_ATOM_DEF_STEREO_COUNT>
14

> <PUBCHEM_ATOM_UDEF_STEREO_COUNT>
0

> <PUBCHEM_BOND_DEF_STEREO_COUNT>
0

> <PUBCHEM_BOND_UDEF_STEREO_COUNT>
0

> <PUBCHEM_ISOTOPIC_ATOM_COUNT>
0

> <PUBCHEM_COMPONENT_COUNT>
1

> <PUBCHEM_CACTVS_TAUTO_COUNT>
-1

> <PUBCHEM_COORDINATE_TYPE>
1
5
255

> <PUBCHEM_BONDANNOTATIONS>
48  10  5
49  11  5
50  12  6
51  13  6
53  14  5
17  57  5
18  58  5
19  25  5
20  26  5
21  23  8
21  27  8
22  24  8
22  28  8
23  29  8
24  30  8
25  35  8
25  36  8
26  37  8
26  38  8
27  31  8
28  32  8
29  33  8
43  3  5
30  34  8
31  33  8
32  34  8
35  39  8
36  40  8
37  41  8
38  42  8
39  45  8
44  4  6
40  45  8
41  46  8
42  46  8
52  55  5
54  56  6
47  9  6

$$$$
