 
  -OEChem-10192104192D

 88 96  0     0  0  0  0  0  0999 V2000
   10.7636   -0.3100    0.0000 O   0  5  0  0  0  0  0  0  0  0  0  0
    9.8975   -1.8100    0.0000 O   0  0  0  0  0  0  0  0  0  0  0  0
    8.1836   -4.9540    0.0000 O   0  5  0  0  0  0  0  0  0  0  0  0
   12.6294    2.7464    0.0000 O   0  5  0  0  0  0  0  0  0  0  0  0
    9.0322   -3.4441    0.0000 O   0  0  0  0  0  0  0  0  0  0  0  0
   11.7460    1.2565    0.0000 O   0  0  0  0  0  0  0  0  0  0  0  0
    6.3093   -8.3835    0.0000 O   0  5  0  0  0  0  0  0  0  0  0  0
   14.6622    6.0842    0.0000 O   0  5  0  0  0  0  0  0  0  0  0  0
    7.1580   -6.8736    0.0000 O   0  0  0  0  0  0  0  0  0  0  0  0
   13.7789    4.5943    0.0000 O   0  0  0  0  0  0  0  0  0  0  0  0
    9.8975   -0.8100    0.0000 N   0  3  0  0  0  0  0  0  0  0  0  0
    6.4334    1.1900    0.0000 N   0  0  0  0  0  0  0  0  0  0  0  0
    8.1720   -3.9541    0.0000 N   0  3  0  0  0  0  0  0  0  0  0  0
   11.7576    2.2564    0.0000 N   0  3  0  0  0  0  0  0  0  0  0  0
    4.5734   -1.8764    0.0000 N   0  0  0  0  0  0  0  0  0  0  0  0
    8.1590    4.3341    0.0000 N   0  0  0  0  0  0  0  0  0  0  0  0
    6.2978   -7.3835    0.0000 N   0  3  0  0  0  0  0  0  0  0  0  0
   13.7905    5.5942    0.0000 N   0  3  0  0  0  0  0  0  0  0  0  0
    2.5405   -5.2143    0.0000 N   0  0  0  0  0  0  0  0  0  0  0  0
   10.0332    7.7635    0.0000 N   0  0  0  0  0  0  0  0  0  0  0  0
    8.1655   -0.8100    0.0000 C   0  0  0  0  0  0  0  0  0  0  0  0
    9.0315    0.6900    0.0000 C   0  0  0  0  0  0  0  0  0  0  0  0
    7.2995   -0.3100    0.0000 C   0  0  0  0  0  0  0  0  0  0  0  0
    8.1655    1.1900    0.0000 C   0  0  0  0  0  0  0  0  0  0  0  0
    8.1816   -1.8515    0.0000 C   0  0  0  0  0  0  0  0  0  0  0  0
    9.9415    1.1968    0.0000 C   0  0  0  0  0  0  0  0  0  0  0  0
    6.3895   -0.8169    0.0000 C   0  0  0  0  0  0  0  0  0  0  0  0
    8.1494    2.2315    0.0000 C   0  0  0  0  0  0  0  0  0  0  0  0
    7.2835   -2.3793    0.0000 C   0  0  0  0  0  0  0  0  0  0  0  0
    9.9495    2.2384    0.0000 C   0  0  0  0  0  0  0  0  0  0  0  0
    6.3814   -1.8585    0.0000 C   0  0  0  0  0  0  0  0  0  0  0  0
    9.0475    2.7593    0.0000 C   0  0  0  0  0  0  0  0  0  0  0  0
    9.0315   -0.3100    0.0000 C   0  0  0  0  0  0  0  0  0  0  0  0
    7.2995    0.6900    0.0000 C   0  0  0  0  0  0  0  0  0  0  0  0
    6.3648   -4.0139    0.0000 C   0  0  0  0  0  0  0  0  0  0  0  0
   10.9058    3.8513    0.0000 C   0  0  0  0  0  0  0  0  0  0  0  0
    5.4252   -3.4714    0.0000 C   0  0  0  0  0  0  0  0  0  0  0  0
    9.9662    4.3938    0.0000 C   0  0  0  0  0  0  0  0  0  0  0  0
    7.3002   -3.4641    0.0000 C   0  0  0  0  0  0  0  0  0  0  0  0
   10.8974    2.7664    0.0000 C   0  0  0  0  0  0  0  0  0  0  0  0
    5.4335   -2.3864    0.0000 C   0  0  0  0  0  0  0  0  0  0  0  0
    9.0307    3.8441    0.0000 C   0  0  0  0  0  0  0  0  0  0  0  0
    6.3822   -5.1439    0.0000 C   0  0  0  0  0  0  0  0  0  0  0  0
   11.8931    4.4013    0.0000 C   0  0  0  0  0  0  0  0  0  0  0  0
    4.4378   -4.0213    0.0000 C   0  0  0  0  0  0  0  0  0  0  0  0
    9.9487    5.5239    0.0000 C   0  0  0  0  0  0  0  0  0  0  0  0
    5.4079   -5.7165    0.0000 C   0  0  0  0  0  0  0  0  0  0  0  0
   11.9019    5.5314    0.0000 C   0  0  0  0  0  0  0  0  0  0  0  0
    4.4291   -5.1514    0.0000 C   0  0  0  0  0  0  0  0  0  0  0  0
   10.9231    6.0965    0.0000 C   0  0  0  0  0  0  0  0  0  0  0  0
    5.4260   -6.8936    0.0000 C   0  0  0  0  0  0  0  0  0  0  0  0
   12.9303    6.1042    0.0000 C   0  0  0  0  0  0  0  0  0  0  0  0
    3.4007   -5.7242    0.0000 C   0  0  0  0  0  0  0  0  0  0  0  0
   10.9050    7.2736    0.0000 C   0  0  0  0  0  0  0  0  0  0  0  0
    4.4111   -7.4900    0.0000 C   0  0  0  0  0  0  0  0  0  0  0  0
   12.9394    7.2814    0.0000 C   0  0  0  0  0  0  0  0  0  0  0  0
    3.3916   -6.9014    0.0000 C   0  0  0  0  0  0  0  0  0  0  0  0
   11.9199    7.8700    0.0000 C   0  0  0  0  0  0  0  0  0  0  0  0
    8.3996   -2.4319    0.0000 H   0  0  0  0  0  0  0  0  0  0  0  0
    8.7907   -1.7360    0.0000 H   0  0  0  0  0  0  0  0  0  0  0  0
   10.1461    0.6115    0.0000 H   0  0  0  0  0  0  0  0  0  0  0  0
   10.5532    1.2982    0.0000 H   0  0  0  0  0  0  0  0  0  0  0  0
    6.1849   -0.2316    0.0000 H   0  0  0  0  0  0  0  0  0  0  0  0
    5.7778   -0.9182    0.0000 H   0  0  0  0  0  0  0  0  0  0  0  0
    7.9314    2.8119    0.0000 H   0  0  0  0  0  0  0  0  0  0  0  0
    7.5403    2.1160    0.0000 H   0  0  0  0  0  0  0  0  0  0  0  0
    6.6003   -5.7243    0.0000 H   0  0  0  0  0  0  0  0  0  0  0  0
    6.9914   -5.0284    0.0000 H   0  0  0  0  0  0  0  0  0  0  0  0
   12.0977    3.8160    0.0000 H   0  0  0  0  0  0  0  0  0  0  0  0
   12.5048    4.5026    0.0000 H   0  0  0  0  0  0  0  0  0  0  0  0
    4.2333   -3.4360    0.0000 H   0  0  0  0  0  0  0  0  0  0  0  0
    3.8262   -4.1227    0.0000 H   0  0  0  0  0  0  0  0  0  0  0  0
    9.7307    6.1043    0.0000 H   0  0  0  0  0  0  0  0  0  0  0  0
    9.3396    5.4084    0.0000 H   0  0  0  0  0  0  0  0  0  0  0  0
    6.4334    1.8100    0.0000 H   0  0  0  0  0  0  0  0  0  0  0  0
    5.8965    0.8800    0.0000 H   0  0  0  0  0  0  0  0  0  0  0  0
    4.0329   -2.1802    0.0000 H   0  0  0  0  0  0  0  0  0  0  0  0
    4.5805   -1.2565    0.0000 H   0  0  0  0  0  0  0  0  0  0  0  0
    8.1518    4.9540    0.0000 H   0  0  0  0  0  0  0  0  0  0  0  0
    7.6257    4.0179    0.0000 H   0  0  0  0  0  0  0  0  0  0  0  0
    4.4135   -8.1100    0.0000 H   0  0  0  0  0  0  0  0  0  0  0  0
   13.4775    7.5893    0.0000 H   0  0  0  0  0  0  0  0  0  0  0  0
    2.8535   -7.2094    0.0000 H   0  0  0  0  0  0  0  0  0  0  0  0
   11.9175    8.4900    0.0000 H   0  0  0  0  0  0  0  0  0  0  0  0
    2.0000   -5.5180    0.0000 H   0  0  0  0  0  0  0  0  0  0  0  0
    2.5476   -4.5943    0.0000 H   0  0  0  0  0  0  0  0  0  0  0  0
   10.0260    8.3835    0.0000 H   0  0  0  0  0  0  0  0  0  0  0  0
    9.4999    7.4473    0.0000 H   0  0  0  0  0  0  0  0  0  0  0  0
  1 11  1  0  0  0  0
  2 11  2  0  0  0  0
  3 13  1  0  0  0  0
  4 14  1  0  0  0  0
  5 13  2  0  0  0  0
  6 14  2  0  0  0  0
  7 17  1  0  0  0  0
  8 18  1  0  0  0  0
  9 17  2  0  0  0  0
 10 18  2  0  0  0  0
 11 33  1  0  0  0  0
 12 34  1  0  0  0  0
 12 75  1  0  0  0  0
 12 76  1  0  0  0  0
 13 39  1  0  0  0  0
 14 40  1  0  0  0  0
 15 41  1  0  0  0  0
 15 77  1  0  0  0  0
 15 78  1  0  0  0  0
 16 42  1  0  0  0  0
 16 79  1  0  0  0  0
 16 80  1  0  0  0  0
 17 51  1  0  0  0  0
 18 52  1  0  0  0  0
 19 53  1  0  0  0  0
 19 85  1  0  0  0  0
 19 86  1  0  0  0  0
 20 54  1  0  0  0  0
 20 87  1  0  0  0  0
 20 88  1  0  0  0  0
 21 23  2  0  0  0  0
 21 25  1  0  0  0  0
 21 33  1  0  0  0  0
 22 24  1  0  0  0  0
 22 26  1  0  0  0  0
 22 33  2  0  0  0  0
 23 27  1  0  0  0  0
 23 34  1  0  0  0  0
 24 28  1  0  0  0  0
 24 34  2  0  0  0  0
 25 29  1  0  0  0  0
 25 59  1  0  0  0  0
 25 60  1  0  0  0  0
 26 30  1  0  0  0  0
 26 61  1  0  0  0  0
 26 62  1  0  0  0  0
 27 31  1  0  0  0  0
 27 63  1  0  0  0  0
 27 64  1  0  0  0  0
 28 32  1  0  0  0  0
 28 65  1  0  0  0  0
 28 66  1  0  0  0  0
 29 31  1  0  0  0  0
 29 39  2  0  0  0  0
 30 32  1  0  0  0  0
 30 40  2  0  0  0  0
 31 41  2  0  0  0  0
 32 42  2  0  0  0  0
 35 37  2  0  0  0  0
 35 39  1  0  0  0  0
 35 43  1  0  0  0  0
 36 38  2  0  0  0  0
 36 40  1  0  0  0  0
 36 44  1  0  0  0  0
 37 41  1  0  0  0  0
 37 45  1  0  0  0  0
 38 42  1  0  0  0  0
 38 46  1  0  0  0  0
 43 47  1  0  0  0  0
 43 67  1  0  0  0  0
 43 68  1  0  0  0  0
 44 48  1  0  0  0  0
 44 69  1  0  0  0  0
 44 70  1  0  0  0  0
 45 49  1  0  0  0  0
 45 71  1  0  0  0  0
 45 72  1  0  0  0  0
 46 50  1  0  0  0  0
 46 73  1  0  0  0  0
 46 74  1  0  0  0  0
 47 49  1  0  0  0  0
 47 51  2  0  0  0  0
 48 50  1  0  0  0  0
 48 52  2  0  0  0  0
 49 53  2  0  0  0  0
 50 54  2  0  0  0  0
 51 55  1  0  0  0  0
 52 56  1  0  0  0  0
 53 57  1  0  0  0  0
 54 58  1  0  0  0  0
 55 57  2  0  0  0  0
 55 81  1  0  0  0  0
 56 58  2  0  0  0  0
 56 82  1  0  0  0  0
 57 83  1  0  0  0  0
 58 84  1  0  0  0  0
M  CHG  8   1  -1   3  -1   4  -1   7  -1   8  -1  11   1  13   1  14   1
M  CHG  2  17   1  18   1
M  END
> <PUBCHEM_COMPOUND_CID>
102431425

> <PUBCHEM_COMPOUND_CANONICALIZED>
1

> <PUBCHEM_CACTVS_COMPLEXITY>
1570

> <PUBCHEM_CACTVS_HBOND_ACCEPTOR>
15

> <PUBCHEM_CACTVS_HBOND_DONOR>
5

> <PUBCHEM_CACTVS_ROTATABLE_BOND>
0

> <PUBCHEM_CACTVS_SUBSKEYS>
AAADceB//AAAAAAAAAAAAAAAAAAAAAAAAAAwYMGDAAAAAADBVAAAHAAUAAAADAiBGAAwwIBQQACBAiRCQwCCAAAgAgAoiAAAZIoIICKAkJGAIABgkAAIyAcQgMAOwACCQAASAACAAQSAACQAAAAAAAAAAA==

> <PUBCHEM_IUPAC_OPENEYE_NAME>
13,17,21,25,29-pentanitrononacyclo[20.16.0.03,20.05,18.07,16.09,14.024,37.026,35.028,33]octatriaconta-1,3(20),5,7(16),9,11,13,17,21,24,26(35),28,30,32,36-pentadecaene-2,6,10,32,36-pentamine

> <PUBCHEM_IUPAC_CAS_NAME>
13,17,21,25,29-pentanitrononacyclo[20.16.0.03,20.05,18.07,16.09,14.024,37.026,35.028,33]octatriaconta-1,3(20),5,7(16),9,11,13,17,21,24,26(35),28,30,32,36-pentadecaene-2,6,10,32,36-pentamine

> <PUBCHEM_IUPAC_NAME_MARKUP>
13,17,21,25,29-pentanitrononacyclo[20.16.0.0<SUP>3,20</SUP>.0<SUP>5,18</SUP>.0<SUP>7,16</SUP>.0<SUP>9,14</SUP>.0<SUP>24,37</SUP>.0<SUP>26,35</SUP>.0<SUP>28,33</SUP>]octatriaconta-1,3(20),5,7(16),9,11,13,17,21,24,26(35),28,30,32,36-pentadecaene-2,6,10,32,36-pentamine

> <PUBCHEM_IUPAC_NAME>
13,17,21,25,29-pentanitrononacyclo[20.16.0.03,20.05,18.07,16.09,14.024,37.026,35.028,33]octatriaconta-1,3(20),5,7(16),9,11,13,17,21,24,26(35),28,30,32,36-pentadecaene-2,6,10,32,36-pentamine

> <PUBCHEM_IUPAC_SYSTEMATIC_NAME>
13,17,21,25,29-pentanitrononacyclo[20.16.0.03,20.05,18.07,16.09,14.024,37.026,35.028,33]octatriaconta-1,3(20),5,7(16),9,11,13,17,21,24,26(35),28,30,32,36-pentadecaene-2,6,10,32,36-pentamine

> <PUBCHEM_IUPAC_TRADITIONAL_NAME>
(2,6,32,36-tetraamino-13,17,21,25,29-pentanitro-10-nonacyclo[20.16.0.03,20.05,18.07,16.09,14.024,37.026,35.028,33]octatriaconta-1,3(20),5,7(16),9,11,13,17,21,24,26(35),28,30,32,36-pentadecaenyl)amine

> <PUBCHEM_IUPAC_INCHI>
InChI=1S/C38H30N10O10/c39-29-1-3-31(44(49)50)15-7-23-17(5-13(15)29)33(41)19-9-21-27(11-25(19)36(23)46(53)54)38(48(57)58)28-12-26-20(10-22(28)35(21)43)34(42)18-6-14-16(8-24(18)37(26)47(55)56)32(45(51)52)4-2-30(14)40/h1-4H,5-12,39-43H2

> <PUBCHEM_IUPAC_INCHIKEY>
YZCFXQBUZWRDAE-UHFFFAOYSA-N

> <PUBCHEM_XLOGP3_AA>
5.3

> <PUBCHEM_EXACT_MASS>
786.21463719

> <PUBCHEM_MOLECULAR_FORMULA>
C38H30N10O10

> <PUBCHEM_MOLECULAR_WEIGHT>
786.7

> <PUBCHEM_OPENEYE_CAN_SMILES>
C1C2=C(CC3=C(C=CC(=C31)N)[N+](=O)[O-])C(=C4CC5=C(CC4=C2N)C(=C6CC7=C(C8=C(CC9=C(C=CC(=C9C8)N)[N+](=O)[O-])C(=C7CC6=C5[N+](=O)[O-])[N+](=O)[O-])N)N)[N+](=O)[O-]

> <PUBCHEM_OPENEYE_ISO_SMILES>
C1C2=C(CC3=C(C=CC(=C31)N)[N+](=O)[O-])C(=C4CC5=C(CC4=C2N)C(=C6CC7=C(C8=C(CC9=C(C=CC(=C9C8)N)[N+](=O)[O-])C(=C7CC6=C5[N+](=O)[O-])[N+](=O)[O-])N)N)[N+](=O)[O-]

> <PUBCHEM_CACTVS_TPSA>
359

> <PUBCHEM_MONOISOTOPIC_WEIGHT>
786.21463719

> <PUBCHEM_TOTAL_CHARGE>
0

> <PUBCHEM_HEAVY_ATOM_COUNT>
58

> <PUBCHEM_ATOM_DEF_STEREO_COUNT>
0

> <PUBCHEM_ATOM_UDEF_STEREO_COUNT>
0

> <PUBCHEM_BOND_DEF_STEREO_COUNT>
0

> <PUBCHEM_BOND_UDEF_STEREO_COUNT>
0

> <PUBCHEM_ISOTOPIC_ATOM_COUNT>
0

> <PUBCHEM_COMPONENT_COUNT>
1

> <PUBCHEM_CACTVS_TAUTO_COUNT>
-1

> <PUBCHEM_COORDINATE_TYPE>
1
5
255

> <PUBCHEM_BONDANNOTATIONS>
21  23  8
21  33  8
22  24  8
22  33  8
23  34  8
24  34  8
29  31  8
29  39  8
30  32  8
30  40  8
31  41  8
32  42  8
35  37  8
35  39  8
36  38  8
36  40  8
37  41  8
38  42  8
47  49  8
47  51  8
48  50  8
48  52  8
49  53  8
50  54  8
51  55  8
52  56  8
53  57  8
54  58  8
55  57  8
56  58  8

$$$$
