 
  -OEChem-10192103512D

 78 82  0     1  0  0  0  0  0999 V2000
    5.6489   -3.5010    0.0000 O   0  0  0  0  0  0  0  0  0  0  0  0
   10.9251    0.6025    0.0000 O   0  0  0  0  0  0  0  0  0  0  0  0
   10.0707   -0.9042    0.0000 O   0  0  0  0  0  0  0  0  0  0  0  0
    2.0000   -2.4840    0.0000 O   0  0  0  0  0  0  0  0  0  0  0  0
    6.8467    2.6423    0.0000 O   0  0  0  0  0  0  0  0  0  0  0  0
    6.5271   -0.9317    0.0000 C   0  0  1  0  0  0  0  0  0  0  0  0
    7.3931   -0.4317    0.0000 C   0  0  1  0  0  0  0  0  0  0  0  0
    5.6610   -0.4317    0.0000 C   0  0  1  0  0  0  0  0  0  0  0  0
    7.3931    0.5683    0.0000 C   0  0  1  0  0  0  0  0  0  0  0  0
    4.7510   -0.9386    0.0000 C   0  0  2  0  0  0  0  0  0  0  0  0
    8.2870    1.1030    0.0000 C   0  0  2  0  0  0  0  0  0  0  0  0
    9.1931    0.5891    0.0000 C   0  0  1  0  0  0  0  0  0  0  0  0
    4.7430   -1.9802    0.0000 C   0  0  1  0  0  0  0  0  0  0  0  0
    6.5431   -1.9732    0.0000 C   0  0  0  0  0  0  0  0  0  0  0  0
    8.2870   -0.9664    0.0000 C   0  0  0  0  0  0  0  0  0  0  0  0
    5.6610    0.5683    0.0000 C   0  0  0  0  0  0  0  0  0  0  0  0
    6.5271    1.0683    0.0000 C   0  0  0  0  0  0  0  0  0  0  0  0
    5.6451   -2.5010    0.0000 C   0  0  1  0  0  0  0  0  0  0  0  0
    9.1931   -0.4525    0.0000 C   0  0  0  0  0  0  0  0  0  0  0  0
    8.4971    2.1169    0.0000 C   0  0  1  0  0  0  0  0  0  0  0  0
    7.1698   -1.6978    0.0000 C   0  0  0  0  0  0  0  0  0  0  0  0
    7.7352   -1.3714    0.0000 C   0  0  0  0  0  0  0  0  0  0  0  0
    3.8242   -0.3745    0.0000 C   0  0  0  0  0  0  0  0  0  0  0  0
    3.8076   -2.5299    0.0000 C   0  0  0  0  0  0  0  0  0  0  0  0
    9.9554    1.2899    0.0000 C   0  0  0  0  0  0  0  0  0  0  0  0
    9.5262    2.2322    0.0000 C   0  0  0  0  0  0  0  0  0  0  0  0
    4.7587    0.0614    0.0000 C   0  0  0  0  0  0  0  0  0  0  0  0
    2.8763   -0.9024    0.0000 C   0  0  0  0  0  0  0  0  0  0  0  0
   10.0629    0.0958    0.0000 C   0  0  0  0  0  0  0  0  0  0  0  0
    2.8680   -1.9874    0.0000 C   0  0  0  0  0  0  0  0  0  0  0  0
    7.8236    2.8560    0.0000 C   0  0  0  0  0  0  0  0  0  0  0  0
    3.3109   -3.3978    0.0000 C   0  0  0  0  0  0  0  0  0  0  0  0
    4.3109   -3.3940    0.0000 C   0  0  0  0  0  0  0  0  0  0  0  0
    8.1269    3.8089    0.0000 C   0  0  0  0  0  0  0  0  0  0  0  0
    6.3972   -0.0067    0.0000 H   0  0  0  0  0  0  0  0  0  0  0  0
    7.3865    1.4183    0.0000 H   0  0  0  0  0  0  0  0  0  0  0  0
    7.5943    1.5955    0.0000 H   0  0  0  0  0  0  0  0  0  0  0  0
    4.7463   -2.8302    0.0000 H   0  0  0  0  0  0  0  0  0  0  0  0
    6.7612   -2.5536    0.0000 H   0  0  0  0  0  0  0  0  0  0  0  0
    7.1523   -1.8577    0.0000 H   0  0  0  0  0  0  0  0  0  0  0  0
    7.8824   -1.4362    0.0000 H   0  0  0  0  0  0  0  0  0  0  0  0
    8.6806   -1.4454    0.0000 H   0  0  0  0  0  0  0  0  0  0  0  0
    5.4490    1.1509    0.0000 H   0  0  0  0  0  0  0  0  0  0  0  0
    5.0504    0.4606    0.0000 H   0  0  0  0  0  0  0  0  0  0  0  0
    6.9256    1.5432    0.0000 H   0  0  0  0  0  0  0  0  0  0  0  0
    6.1285    1.5432    0.0000 H   0  0  0  0  0  0  0  0  0  0  0  0
    5.1087   -2.8120    0.0000 H   0  0  0  0  0  0  0  0  0  0  0  0
    9.4022   -1.0362    0.0000 H   0  0  0  0  0  0  0  0  0  0  0  0
    9.8040   -0.3464    0.0000 H   0  0  0  0  0  0  0  0  0  0  0  0
    8.7156    2.6971    0.0000 H   0  0  0  0  0  0  0  0  0  0  0  0
    6.6949   -2.0963    0.0000 H   0  0  0  0  0  0  0  0  0  0  0  0
    7.5684   -2.1727    0.0000 H   0  0  0  0  0  0  0  0  0  0  0  0
    7.6448   -1.2992    0.0000 H   0  0  0  0  0  0  0  0  0  0  0  0
    7.1526   -1.5835    0.0000 H   0  0  0  0  0  0  0  0  0  0  0  0
    7.9473   -1.9540    0.0000 H   0  0  0  0  0  0  0  0  0  0  0  0
    8.3178   -1.1593    0.0000 H   0  0  0  0  0  0  0  0  0  0  0  0
    4.2324    0.0922    0.0000 H   0  0  0  0  0  0  0  0  0  0  0  0
    3.4343    0.1076    0.0000 H   0  0  0  0  0  0  0  0  0  0  0  0
   10.3247    0.7918    0.0000 H   0  0  0  0  0  0  0  0  0  0  0  0
   10.4895    1.6048    0.0000 H   0  0  0  0  0  0  0  0  0  0  0  0
   10.1143    2.4285    0.0000 H   0  0  0  0  0  0  0  0  0  0  0  0
    9.3928    2.8376    0.0000 H   0  0  0  0  0  0  0  0  0  0  0  0
    5.3787    0.0566    0.0000 H   0  0  0  0  0  0  0  0  0  0  0  0
    4.7635    0.6814    0.0000 H   0  0  0  0  0  0  0  0  0  0  0  0
    4.1388    0.0662    0.0000 H   0  0  0  0  0  0  0  0  0  0  0  0
    2.6718   -0.3171    0.0000 H   0  0  0  0  0  0  0  0  0  0  0  0
    2.2647   -1.0038    0.0000 H   0  0  0  0  0  0  0  0  0  0  0  0
    2.7728   -3.0899    0.0000 H   0  0  0  0  0  0  0  0  0  0  0  0
    3.0030   -3.9360    0.0000 H   0  0  0  0  0  0  0  0  0  0  0  0
    3.8490   -3.7058    0.0000 H   0  0  0  0  0  0  0  0  0  0  0  0
    3.7752   -3.7060    0.0000 H   0  0  0  0  0  0  0  0  0  0  0  0
    4.6230   -3.9297    0.0000 H   0  0  0  0  0  0  0  0  0  0  0  0
    4.8466   -3.0819    0.0000 H   0  0  0  0  0  0  0  0  0  0  0  0
    6.1871   -3.8089    0.0000 H   0  0  0  0  0  0  0  0  0  0  0  0
    8.7177    3.6208    0.0000 H   0  0  0  0  0  0  0  0  0  0  0  0
    8.3150    4.3997    0.0000 H   0  0  0  0  0  0  0  0  0  0  0  0
    7.5361    3.9970    0.0000 H   0  0  0  0  0  0  0  0  0  0  0  0
   11.4644    0.2966    0.0000 H   0  0  0  0  0  0  0  0  0  0  0  0
 18  1  1  1  0  0  0
  1 74  1  0  0  0  0
  2 29  1  0  0  0  0
  2 78  1  0  0  0  0
  3 29  2  0  0  0  0
  4 30  2  0  0  0  0
  5 31  2  0  0  0  0
  6  7  1  0  0  0  0
  6  8  1  0  0  0  0
  6 14  1  0  0  0  0
  6 21  1  1  0  0  0
  7  9  1  0  0  0  0
  7 15  1  0  0  0  0
  7 22  1  6  0  0  0
  8 10  1  0  0  0  0
  8 16  1  0  0  0  0
  8 35  1  6  0  0  0
  9 11  1  0  0  0  0
  9 17  1  0  0  0  0
  9 36  1  1  0  0  0
 10 13  1  0  0  0  0
 10 23  1  0  0  0  0
 10 27  1  1  0  0  0
 11 12  1  0  0  0  0
 11 20  1  0  0  0  0
 11 37  1  6  0  0  0
 12 19  1  0  0  0  0
 12 25  1  0  0  0  0
 12 29  1  1  0  0  0
 13 18  1  0  0  0  0
 13 24  1  0  0  0  0
 13 38  1  6  0  0  0
 14 18  1  0  0  0  0
 14 39  1  0  0  0  0
 14 40  1  0  0  0  0
 15 19  1  0  0  0  0
 15 41  1  0  0  0  0
 15 42  1  0  0  0  0
 16 17  1  0  0  0  0
 16 43  1  0  0  0  0
 16 44  1  0  0  0  0
 17 45  1  0  0  0  0
 17 46  1  0  0  0  0
 18 47  1  0  0  0  0
 19 48  1  0  0  0  0
 19 49  1  0  0  0  0
 20 26  1  0  0  0  0
 20 31  1  6  0  0  0
 20 50  1  0  0  0  0
 21 51  1  0  0  0  0
 21 52  1  0  0  0  0
 21 53  1  0  0  0  0
 22 54  1  0  0  0  0
 22 55  1  0  0  0  0
 22 56  1  0  0  0  0
 23 28  1  0  0  0  0
 23 57  1  0  0  0  0
 23 58  1  0  0  0  0
 24 30  1  0  0  0  0
 24 32  1  0  0  0  0
 24 33  1  0  0  0  0
 25 26  1  0  0  0  0
 25 59  1  0  0  0  0
 25 60  1  0  0  0  0
 26 61  1  0  0  0  0
 26 62  1  0  0  0  0
 27 63  1  0  0  0  0
 27 64  1  0  0  0  0
 27 65  1  0  0  0  0
 28 30  1  0  0  0  0
 28 66  1  0  0  0  0
 28 67  1  0  0  0  0
 31 34  1  0  0  0  0
 32 68  1  0  0  0  0
 32 69  1  0  0  0  0
 32 70  1  0  0  0  0
 33 71  1  0  0  0  0
 33 72  1  0  0  0  0
 33 73  1  0  0  0  0
 34 75  1  0  0  0  0
 34 76  1  0  0  0  0
 34 77  1  0  0  0  0
M  END
> <PUBCHEM_COMPOUND_CID>
11719799

> <PUBCHEM_COMPOUND_CANONICALIZED>
1

> <PUBCHEM_CACTVS_COMPLEXITY>
939

> <PUBCHEM_CACTVS_HBOND_ACCEPTOR>
5

> <PUBCHEM_CACTVS_HBOND_DONOR>
2

> <PUBCHEM_CACTVS_ROTATABLE_BOND>
2

> <PUBCHEM_CACTVS_SUBSKEYS>
AAADcfB4OAAAAAAAAAAAAAAAAAAAAYAAAAAwYMGAAAAAAGDAAAAAGgAACAAADxSggAICCAAAAgAIAICQCAAAAAAAAAAAAAEAAAAAEBIAAAAAQAAEAAAAAAGKzvCvgAAAAAAAAADAAAYAADAAAQAACAAAAA==

> <PUBCHEM_IUPAC_OPENEYE_NAME>
(1R,3aS,5aR,5bR,7R,7aR,11aR,11bR,13aR,13bS)-1-acetyl-7-hydroxy-5a,5b,8,8,11a-pentamethyl-9-oxo-2,3,4,5,6,7,7a,10,11,11b,12,13,13a,13b-tetradecahydro-1H-cyclopenta[a]chrysene-3a-carboxylic acid

> <PUBCHEM_IUPAC_CAS_NAME>
(1R,3aS,5aR,5bR,7R,7aR,11aR,11bR,13aR,13bS)-1-acetyl-7-hydroxy-5a,5b,8,8,11a-pentamethyl-9-oxo-2,3,4,5,6,7,7a,10,11,11b,12,13,13a,13b-tetradecahydro-1H-cyclopenta[a]chrysene-3a-carboxylic acid

> <PUBCHEM_IUPAC_NAME_MARKUP>
(1<I>R</I>,3<I>a</I><I>S</I>,5<I>a</I><I>R</I>,5<I>b</I><I>R</I>,7<I>R</I>,7<I>a</I><I>R</I>,11<I>a</I><I>R</I>,11<I>b</I><I>R</I>,13<I>a</I><I>R</I>,13<I>b</I><I>S</I>)-1-acetyl-7-hydroxy-5<I>a</I>,5<I>b</I>,8,8,11<I>a</I>-pentamethyl-9-oxo-2,3,4,5,6,7,7<I>a</I>,10,11,11<I>b</I>,12,13,13<I>a</I>,13<I>b</I>-tetradecahydro-1<I>H</I>-cyclopenta[a]chrysene-3<I>a</I>-carboxylic acid

> <PUBCHEM_IUPAC_NAME>
(1R,3aS,5aR,5bR,7R,7aR,11aR,11bR,13aR,13bS)-1-acetyl-7-hydroxy-5a,5b,8,8,11a-pentamethyl-9-oxo-2,3,4,5,6,7,7a,10,11,11b,12,13,13a,13b-tetradecahydro-1H-cyclopenta[a]chrysene-3a-carboxylic acid

> <PUBCHEM_IUPAC_SYSTEMATIC_NAME>
(1R,3aS,5aR,5bR,7R,7aR,11aR,11bR,13aR,13bS)-1-ethanoyl-5a,5b,8,8,11a-pentamethyl-7-oxidanyl-9-oxidanylidene-2,3,4,5,6,7,7a,10,11,11b,12,13,13a,13b-tetradecahydro-1H-cyclopenta[a]chrysene-3a-carboxylic acid

> <PUBCHEM_IUPAC_TRADITIONAL_NAME>
(1R,3aS,5aR,5bR,7R,7aR,11aR,11bR,13aR,13bS)-1-acetyl-7-hydroxy-9-keto-5a,5b,8,8,11a-pentamethyl-2,3,4,5,6,7,7a,10,11,11b,12,13,13a,13b-tetradecahydro-1H-cyclopenta[a]chrysene-3a-carboxylic acid

> <PUBCHEM_IUPAC_INCHI>
InChI=1S/C29H44O5/c1-16(30)17-9-12-29(24(33)34)14-13-27(5)18(22(17)29)7-8-20-26(4)11-10-21(32)25(2,3)23(26)19(31)15-28(20,27)6/h17-20,22-23,31H,7-15H2,1-6H3,(H,33,34)/t17-,18+,19+,20+,22+,23-,26+,27+,28+,29-/m0/s1

> <PUBCHEM_IUPAC_INCHIKEY>
KRPKAQPXUCCGIJ-IPKDLSDTSA-N

> <PUBCHEM_XLOGP3_AA>
4.5

> <PUBCHEM_EXACT_MASS>
472.31887450

> <PUBCHEM_MOLECULAR_FORMULA>
C29H44O5

> <PUBCHEM_MOLECULAR_WEIGHT>
472.7

> <PUBCHEM_OPENEYE_CAN_SMILES>
CC(=O)C1CCC2(C1C3CCC4C5(CCC(=O)C(C5C(CC4(C3(CC2)C)C)O)(C)C)C)C(=O)O

> <PUBCHEM_OPENEYE_ISO_SMILES>
CC(=O)[C@@H]1CC[C@]2([C@H]1[C@H]3CC[C@@H]4[C@]5(CCC(=O)C([C@@H]5[C@@H](C[C@]4([C@@]3(CC2)C)C)O)(C)C)C)C(=O)O

> <PUBCHEM_CACTVS_TPSA>
91.7

> <PUBCHEM_MONOISOTOPIC_WEIGHT>
472.31887450

> <PUBCHEM_TOTAL_CHARGE>
0

> <PUBCHEM_HEAVY_ATOM_COUNT>
34

> <PUBCHEM_ATOM_DEF_STEREO_COUNT>
10

> <PUBCHEM_ATOM_UDEF_STEREO_COUNT>
0

> <PUBCHEM_BOND_DEF_STEREO_COUNT>
0

> <PUBCHEM_BOND_UDEF_STEREO_COUNT>
0

> <PUBCHEM_ISOTOPIC_ATOM_COUNT>
0

> <PUBCHEM_COMPONENT_COUNT>
1

> <PUBCHEM_CACTVS_TAUTO_COUNT>
-1

> <PUBCHEM_COORDINATE_TYPE>
1
5
255

> <PUBCHEM_BONDANNOTATIONS>
18  1  5
10  27  5
11  37  6
12  29  5
13  38  6
20  31  6
6  21  5
7  22  6
8  35  6
9  36  5

$$$$
