 
  -OEChem-10192104382D

114115  0     1  0  0  0  0  0999 V2000
   10.3312   -6.3100    0.0000 O   0  0  0  0  0  0  0  0  0  0  0  0
    8.5991   -6.3100    0.0000 O   0  0  0  0  0  0  0  0  0  0  0  0
    9.4651   -3.8100    0.0000 O   0  0  0  0  0  0  0  0  0  0  0  0
   10.3312   -8.3100    0.0000 O   0  0  0  0  0  0  0  0  0  0  0  0
    8.5991   -9.3100    0.0000 O   0  0  0  0  0  0  0  0  0  0  0  0
    6.8671   -8.3100    0.0000 O   0  0  0  0  0  0  0  0  0  0  0  0
   12.0632   -5.3100    0.0000 O   0  0  0  0  0  0  0  0  0  0  0  0
   10.3312   -2.3100    0.0000 O   0  0  0  0  0  0  0  0  0  0  0  0
   12.0632   -3.3100    0.0000 O   0  0  0  0  0  0  0  0  0  0  0  0
    7.7331   -4.8100    0.0000 O   0  0  0  0  0  0  0  0  0  0  0  0
    6.8671   -5.3100    0.0000 O   0  0  0  0  0  0  0  0  0  0  0  0
   11.1972   -6.8100    0.0000 O   0  0  0  0  0  0  0  0  0  0  0  0
    6.8671   -9.3100    0.0000 O   0  0  0  0  0  0  0  0  0  0  0  0
    6.0010   -6.8100    0.0000 O   0  0  0  0  0  0  0  0  0  0  0  0
    8.5991   -3.3100    0.0000 O   0  0  0  0  0  0  0  0  0  0  0  0
    2.5369    8.1900    0.0000 O   0  0  0  0  0  0  0  0  0  0  0  0
    2.5369   10.1900    0.0000 O   0  0  0  0  0  0  0  0  0  0  0  0
    4.2690   10.1900    0.0000 O   0  0  0  0  0  0  0  0  0  0  0  0
   10.3312   -5.3100    0.0000 C   0  0  1  0  0  0  0  0  0  0  0  0
    9.4651   -6.8100    0.0000 C   0  0  2  0  0  0  0  0  0  0  0  0
    9.4651   -7.8100    0.0000 C   0  0  1  0  0  0  0  0  0  0  0  0
   11.1972   -4.8100    0.0000 C   0  0  1  0  0  0  0  0  0  0  0  0
    8.5991   -8.3100    0.0000 C   0  0  2  0  0  0  0  0  0  0  0  0
    9.4651   -4.8100    0.0000 C   0  0  1  0  0  0  0  0  0  0  0  0
    7.7331   -7.8100    0.0000 C   0  0  1  0  0  0  0  0  0  0  0  0
    7.7331   -6.8100    0.0000 C   0  0  1  0  0  0  0  0  0  0  0  0
   11.1972   -3.8100    0.0000 C   0  0  2  0  0  0  0  0  0  0  0  0
   10.3312   -3.3100    0.0000 C   0  0  1  0  0  0  0  0  0  0  0  0
    8.5991   -5.3100    0.0000 C   0  0  0  0  0  0  0  0  0  0  0  0
    6.8671   -6.3100    0.0000 C   0  0  0  0  0  0  0  0  0  0  0  0
    9.4651   -1.8100    0.0000 C   0  0  0  0  0  0  0  0  0  0  0  0
    9.4651   -0.8100    0.0000 C   0  0  0  0  0  0  0  0  0  0  0  0
   11.1972   -7.8100    0.0000 C   0  0  0  0  0  0  0  0  0  0  0  0
    7.7331   -9.8100    0.0000 C   0  0  0  0  0  0  0  0  0  0  0  0
    6.0010   -7.8100    0.0000 C   0  0  0  0  0  0  0  0  0  0  0  0
    8.5991   -0.3100    0.0000 C   0  0  0  0  0  0  0  0  0  0  0  0
    8.5991    0.6900    0.0000 C   0  0  0  0  0  0  0  0  0  0  0  0
    7.7331    1.1900    0.0000 C   0  0  0  0  0  0  0  0  0  0  0  0
    7.7331   -3.8100    0.0000 C   0  0  0  0  0  0  0  0  0  0  0  0
    7.7331    2.1900    0.0000 C   0  0  0  0  0  0  0  0  0  0  0  0
   12.0632   -8.3100    0.0000 C   0  0  0  0  0  0  0  0  0  0  0  0
    7.7331  -10.8100    0.0000 C   0  0  0  0  0  0  0  0  0  0  0  0
    5.1350   -8.3100    0.0000 C   0  0  0  0  0  0  0  0  0  0  0  0
    6.8671    2.6900    0.0000 C   0  0  0  0  0  0  0  0  0  0  0  0
    6.8671    3.6900    0.0000 C   0  0  0  0  0  0  0  0  0  0  0  0
    6.0010    4.1900    0.0000 C   0  0  0  0  0  0  0  0  0  0  0  0
    6.0010    5.1900    0.0000 C   0  0  0  0  0  0  0  0  0  0  0  0
    6.8671   -3.3100    0.0000 C   0  0  0  0  0  0  0  0  0  0  0  0
    5.1350    5.6900    0.0000 C   0  0  0  0  0  0  0  0  0  0  0  0
    5.1350    6.6900    0.0000 C   0  0  0  0  0  0  0  0  0  0  0  0
    4.2690    7.1900    0.0000 C   0  0  0  0  0  0  0  0  0  0  0  0
    4.2690    8.1900    0.0000 C   0  0  0  0  0  0  0  0  0  0  0  0
    3.4030    8.6900    0.0000 C   0  0  3  0  0  0  0  0  0  0  0  0
    3.4030    9.6900    0.0000 C   0  0  0  0  0  0  0  0  0  0  0  0
    9.7942   -5.6200    0.0000 H   0  0  0  0  0  0  0  0  0  0  0  0
   10.0021   -7.1200    0.0000 H   0  0  0  0  0  0  0  0  0  0  0  0
    9.4651   -8.4300    0.0000 H   0  0  0  0  0  0  0  0  0  0  0  0
   11.1972   -5.4300    0.0000 H   0  0  0  0  0  0  0  0  0  0  0  0
    8.0622   -8.6200    0.0000 H   0  0  0  0  0  0  0  0  0  0  0  0
    8.9282   -4.5000    0.0000 H   0  0  0  0  0  0  0  0  0  0  0  0
    7.1962   -7.5000    0.0000 H   0  0  0  0  0  0  0  0  0  0  0  0
    7.7331   -6.1900    0.0000 H   0  0  0  0  0  0  0  0  0  0  0  0
   11.7341   -4.1200    0.0000 H   0  0  0  0  0  0  0  0  0  0  0  0
    9.7942   -3.0000    0.0000 H   0  0  0  0  0  0  0  0  0  0  0  0
    8.2006   -5.7850    0.0000 H   0  0  0  0  0  0  0  0  0  0  0  0
    8.9976   -5.7850    0.0000 H   0  0  0  0  0  0  0  0  0  0  0  0
    6.2565   -6.2023    0.0000 H   0  0  0  0  0  0  0  0  0  0  0  0
    6.6550   -6.8926    0.0000 H   0  0  0  0  0  0  0  0  0  0  0  0
   12.6002   -5.0000    0.0000 H   0  0  0  0  0  0  0  0  0  0  0  0
   12.0632   -2.6900    0.0000 H   0  0  0  0  0  0  0  0  0  0  0  0
    8.8546   -1.7023    0.0000 H   0  0  0  0  0  0  0  0  0  0  0  0
    9.2531   -2.3926    0.0000 H   0  0  0  0  0  0  0  0  0  0  0  0
   10.0757   -0.9177    0.0000 H   0  0  0  0  0  0  0  0  0  0  0  0
    9.6772   -0.2274    0.0000 H   0  0  0  0  0  0  0  0  0  0  0  0
    6.3301   -5.0000    0.0000 H   0  0  0  0  0  0  0  0  0  0  0  0
    7.9885   -0.2023    0.0000 H   0  0  0  0  0  0  0  0  0  0  0  0
    8.3871   -0.8926    0.0000 H   0  0  0  0  0  0  0  0  0  0  0  0
    9.2097    0.5823    0.0000 H   0  0  0  0  0  0  0  0  0  0  0  0
    8.8112    1.2726    0.0000 H   0  0  0  0  0  0  0  0  0  0  0  0
    7.1225    1.2977    0.0000 H   0  0  0  0  0  0  0  0  0  0  0  0
    7.5210    0.6074    0.0000 H   0  0  0  0  0  0  0  0  0  0  0  0
    8.3437    2.0823    0.0000 H   0  0  0  0  0  0  0  0  0  0  0  0
    7.9451    2.7726    0.0000 H   0  0  0  0  0  0  0  0  0  0  0  0
   11.7532   -8.8469    0.0000 H   0  0  0  0  0  0  0  0  0  0  0  0
   12.6002   -8.6200    0.0000 H   0  0  0  0  0  0  0  0  0  0  0  0
   12.3732   -7.7731    0.0000 H   0  0  0  0  0  0  0  0  0  0  0  0
    7.1131  -10.8100    0.0000 H   0  0  0  0  0  0  0  0  0  0  0  0
    7.7331  -11.4300    0.0000 H   0  0  0  0  0  0  0  0  0  0  0  0
    8.3531  -10.8100    0.0000 H   0  0  0  0  0  0  0  0  0  0  0  0
    4.8250   -7.7731    0.0000 H   0  0  0  0  0  0  0  0  0  0  0  0
    4.5981   -8.6200    0.0000 H   0  0  0  0  0  0  0  0  0  0  0  0
    5.4450   -8.8469    0.0000 H   0  0  0  0  0  0  0  0  0  0  0  0
    6.2565    2.7977    0.0000 H   0  0  0  0  0  0  0  0  0  0  0  0
    6.6550    2.1074    0.0000 H   0  0  0  0  0  0  0  0  0  0  0  0
    7.4776    3.5823    0.0000 H   0  0  0  0  0  0  0  0  0  0  0  0
    7.0791    4.2726    0.0000 H   0  0  0  0  0  0  0  0  0  0  0  0
    5.3905    4.2977    0.0000 H   0  0  0  0  0  0  0  0  0  0  0  0
    5.7890    3.6074    0.0000 H   0  0  0  0  0  0  0  0  0  0  0  0
    6.6116    5.0823    0.0000 H   0  0  0  0  0  0  0  0  0  0  0  0
    6.2131    5.7726    0.0000 H   0  0  0  0  0  0  0  0  0  0  0  0
    4.5244    5.7977    0.0000 H   0  0  0  0  0  0  0  0  0  0  0  0
    4.9230    5.1074    0.0000 H   0  0  0  0  0  0  0  0  0  0  0  0
    7.1771   -2.7731    0.0000 H   0  0  0  0  0  0  0  0  0  0  0  0
    6.3301   -3.0000    0.0000 H   0  0  0  0  0  0  0  0  0  0  0  0
    6.5571   -3.8469    0.0000 H   0  0  0  0  0  0  0  0  0  0  0  0
    5.7456    6.5823    0.0000 H   0  0  0  0  0  0  0  0  0  0  0  0
    5.3471    7.2726    0.0000 H   0  0  0  0  0  0  0  0  0  0  0  0
    3.6584    7.2977    0.0000 H   0  0  0  0  0  0  0  0  0  0  0  0
    4.0569    6.6074    0.0000 H   0  0  0  0  0  0  0  0  0  0  0  0
    4.8796    8.0823    0.0000 H   0  0  0  0  0  0  0  0  0  0  0  0
    4.4810    8.7726    0.0000 H   0  0  0  0  0  0  0  0  0  0  0  0
    3.4030    8.0700    0.0000 H   0  0  0  0  0  0  0  0  0  0  0  0
    2.0000    8.5000    0.0000 H   0  0  0  0  0  0  0  0  0  0  0  0
    2.5369   10.8100    0.0000 H   0  0  0  0  0  0  0  0  0  0  0  0
 19  1  1  6  0  0  0
 20  1  1  1  0  0  0
  2 20  1  0  0  0  0
  2 26  1  0  0  0  0
  3 24  1  0  0  0  0
  3 28  1  0  0  0  0
 21  4  1  6  0  0  0
  4 33  1  0  0  0  0
 23  5  1  1  0  0  0
  5 34  1  0  0  0  0
 25  6  1  6  0  0  0
  6 35  1  0  0  0  0
 22  7  1  1  0  0  0
  7 69  1  0  0  0  0
 28  8  1  1  0  0  0
  8 31  1  0  0  0  0
 27  9  1  6  0  0  0
  9 70  1  0  0  0  0
 10 29  1  0  0  0  0
 10 39  1  0  0  0  0
 11 30  1  0  0  0  0
 11 75  1  0  0  0  0
 12 33  2  0  0  0  0
 13 34  2  0  0  0  0
 14 35  2  0  0  0  0
 15 39  2  0  0  0  0
 16 53  1  0  0  0  0
 16113  1  0  0  0  0
 17 54  1  0  0  0  0
 17114  1  0  0  0  0
 18 54  2  0  0  0  0
 19 22  1  0  0  0  0
 19 24  1  0  0  0  0
 19 55  1  0  0  0  0
 20 21  1  0  0  0  0
 20 56  1  0  0  0  0
 21 23  1  0  0  0  0
 21 57  1  0  0  0  0
 22 27  1  0  0  0  0
 22 58  1  0  0  0  0
 23 25  1  0  0  0  0
 23 59  1  0  0  0  0
 24 29  1  1  0  0  0
 24 60  1  0  0  0  0
 25 26  1  0  0  0  0
 25 61  1  0  0  0  0
 26 30  1  1  0  0  0
 26 62  1  0  0  0  0
 27 28  1  0  0  0  0
 27 63  1  0  0  0  0
 28 64  1  0  0  0  0
 29 65  1  0  0  0  0
 29 66  1  0  0  0  0
 30 67  1  0  0  0  0
 30 68  1  0  0  0  0
 31 32  1  0  0  0  0
 31 71  1  0  0  0  0
 31 72  1  0  0  0  0
 32 36  1  0  0  0  0
 32 73  1  0  0  0  0
 32 74  1  0  0  0  0
 33 41  1  0  0  0  0
 34 42  1  0  0  0  0
 35 43  1  0  0  0  0
 36 37  1  0  0  0  0
 36 76  1  0  0  0  0
 36 77  1  0  0  0  0
 37 38  1  0  0  0  0
 37 78  1  0  0  0  0
 37 79  1  0  0  0  0
 38 40  1  0  0  0  0
 38 80  1  0  0  0  0
 38 81  1  0  0  0  0
 39 48  1  0  0  0  0
 40 44  1  0  0  0  0
 40 82  1  0  0  0  0
 40 83  1  0  0  0  0
 41 84  1  0  0  0  0
 41 85  1  0  0  0  0
 41 86  1  0  0  0  0
 42 87  1  0  0  0  0
 42 88  1  0  0  0  0
 42 89  1  0  0  0  0
 43 90  1  0  0  0  0
 43 91  1  0  0  0  0
 43 92  1  0  0  0  0
 44 45  1  0  0  0  0
 44 93  1  0  0  0  0
 44 94  1  0  0  0  0
 45 46  1  0  0  0  0
 45 95  1  0  0  0  0
 45 96  1  0  0  0  0
 46 47  1  0  0  0  0
 46 97  1  0  0  0  0
 46 98  1  0  0  0  0
 47 49  1  0  0  0  0
 47 99  1  0  0  0  0
 47100  1  0  0  0  0
 48103  1  0  0  0  0
 48104  1  0  0  0  0
 48105  1  0  0  0  0
 49 50  1  0  0  0  0
 49101  1  0  0  0  0
 49102  1  0  0  0  0
 50 51  1  0  0  0  0
 50106  1  0  0  0  0
 50107  1  0  0  0  0
 51 52  1  0  0  0  0
 51108  1  0  0  0  0
 51109  1  0  0  0  0
 52 53  1  0  0  0  0
 52110  1  0  0  0  0
 52111  1  0  0  0  0
 53 54  1  0  0  0  0
 53112  1  0  0  0  0
M  END
> <PUBCHEM_COMPOUND_CID>
102033147

> <PUBCHEM_COMPOUND_CANONICALIZED>
1

> <PUBCHEM_CACTVS_COMPLEXITY>
1150

> <PUBCHEM_CACTVS_HBOND_ACCEPTOR>
18

> <PUBCHEM_CACTVS_HBOND_DONOR>
5

> <PUBCHEM_CACTVS_ROTATABLE_BOND>
29

> <PUBCHEM_CACTVS_SUBSKEYS>
AAADcfB8PgAAAAAAAAAAAAAAAAAAAAAAAAAkSAAAAAAAAAAAAAAAGgAACAAACBSwgAMCCAAABgAIAACQCAIAAAAAAAAAAAFAAAAREBIAAAAiQAAFAAAHAAHI6KyAAAAAAAAAAAAAAAAAAAAAAAAAAAAAAA==

> <PUBCHEM_IUPAC_OPENEYE_NAME>
16-[(2R,3R,4R,5S,6R)-6-(acetoxymethyl)-3,4-dihydroxy-5-[(2S,3R,4S,5R,6R)-3,4,5-triacetoxy-6-(hydroxymethyl)tetrahydropyran-2-yl]oxy-tetrahydropyran-2-yl]oxy-2-hydroxy-hexadecanoic acid

> <PUBCHEM_IUPAC_CAS_NAME>
16-[[(2R,3R,4R,5S,6R)-6-(acetyloxymethyl)-3,4-dihydroxy-5-[[(2S,3R,4S,5R,6R)-3,4,5-triacetyloxy-6-(hydroxymethyl)-2-oxanyl]oxy]-2-oxanyl]oxy]-2-hydroxyhexadecanoic acid

> <PUBCHEM_IUPAC_NAME_MARKUP>
16-[(2<I>R</I>,3<I>R</I>,4<I>R</I>,5<I>S</I>,6<I>R</I>)-6-(acetyloxymethyl)-3,4-dihydroxy-5-[(2<I>S</I>,3<I>R</I>,4<I>S</I>,5<I>R</I>,6<I>R</I>)-3,4,5-triacetyloxy-6-(hydroxymethyl)oxan-2-yl]oxyoxan-2-yl]oxy-2-hydroxyhexadecanoic acid

> <PUBCHEM_IUPAC_NAME>
16-[(2R,3R,4R,5S,6R)-6-(acetyloxymethyl)-3,4-dihydroxy-5-[(2S,3R,4S,5R,6R)-3,4,5-triacetyloxy-6-(hydroxymethyl)oxan-2-yl]oxyoxan-2-yl]oxy-2-hydroxyhexadecanoic acid

> <PUBCHEM_IUPAC_SYSTEMATIC_NAME>
16-[(2R,3R,4R,5S,6R)-6-(acetyloxymethyl)-3,4-bis(oxidanyl)-5-[(2S,3R,4S,5R,6R)-3,4,5-triacetyloxy-6-(hydroxymethyl)oxan-2-yl]oxy-oxan-2-yl]oxy-2-oxidanyl-hexadecanoic acid

> <PUBCHEM_IUPAC_TRADITIONAL_NAME>
16-[(2R,3R,4R,5S,6R)-6-(acetoxymethyl)-3,4-dihydroxy-5-[(2S,3R,4S,5R,6R)-3,4,5-triacetoxy-6-methylol-tetrahydropyran-2-yl]oxy-tetrahydropyran-2-yl]oxy-2-hydroxy-palmitic acid

> <PUBCHEM_IUPAC_INCHI>
InChI=1S/C36H60O18/c1-21(38)48-20-27-30(54-36-33(51-24(4)41)32(50-23(3)40)31(49-22(2)39)26(19-37)52-36)28(43)29(44)35(53-27)47-18-16-14-12-10-8-6-5-7-9-11-13-15-17-25(42)34(45)46/h25-33,35-37,42-44H,5-20H2,1-4H3,(H,45,46)/t25?,26-,27-,28-,29-,30-,31-,32+,33-,35-,36+/m1/s1

> <PUBCHEM_IUPAC_INCHIKEY>
UPLXITMQPCGLAV-PMYZLYJNSA-N

> <PUBCHEM_XLOGP3_AA>
2.8

> <PUBCHEM_EXACT_MASS>
780.37796506

> <PUBCHEM_MOLECULAR_FORMULA>
C36H60O18

> <PUBCHEM_MOLECULAR_WEIGHT>
780.8

> <PUBCHEM_OPENEYE_CAN_SMILES>
CC(=O)OCC1C(C(C(C(O1)OCCCCCCCCCCCCCCC(C(=O)O)O)O)O)OC2C(C(C(C(O2)CO)OC(=O)C)OC(=O)C)OC(=O)C

> <PUBCHEM_OPENEYE_ISO_SMILES>
CC(=O)OC[C@@H]1[C@H]([C@@H]([C@H]([C@@H](O1)OCCCCCCCCCCCCCCC(C(=O)O)O)O)O)O[C@H]2[C@@H]([C@H]([C@@H]([C@H](O2)CO)OC(=O)C)OC(=O)C)OC(=O)C

> <PUBCHEM_CACTVS_TPSA>
260

> <PUBCHEM_MONOISOTOPIC_WEIGHT>
780.37796506

> <PUBCHEM_TOTAL_CHARGE>
0

> <PUBCHEM_HEAVY_ATOM_COUNT>
54

> <PUBCHEM_ATOM_DEF_STEREO_COUNT>
10

> <PUBCHEM_ATOM_UDEF_STEREO_COUNT>
1

> <PUBCHEM_BOND_DEF_STEREO_COUNT>
0

> <PUBCHEM_BOND_UDEF_STEREO_COUNT>
0

> <PUBCHEM_ISOTOPIC_ATOM_COUNT>
0

> <PUBCHEM_COMPONENT_COUNT>
1

> <PUBCHEM_CACTVS_TAUTO_COUNT>
-1

> <PUBCHEM_COORDINATE_TYPE>
1
5
255

> <PUBCHEM_BONDANNOTATIONS>
19  1  6
20  1  5
53  16  3
24  29  5
26  30  5
21  4  6
23  5  5
25  6  6
22  7  5
28  8  5
27  9  6

$$$$
