 
  -OEChem-10192103372D

 67 67  0     1  0  0  0  0  0999 V2000
   10.3723    3.5141    0.0000 O   0  0  0  0  0  0  0  0  0  0  0  0
    3.1220   -5.1134    0.0000 O   0  0  0  0  0  0  0  0  0  0  0  0
    8.3940    1.7572    0.0000 O   0  0  0  0  0  0  0  0  0  0  0  0
    5.7631   -4.9568    0.0000 O   0  0  0  0  0  0  0  0  0  0  0  0
    6.8175   -3.5827    0.0000 O   0  0  0  0  0  0  0  0  0  0  0  0
    4.8392   -5.3395    0.0000 O   0  0  0  0  0  0  0  0  0  0  0  0
    9.0568    0.1570    0.0000 O   0  0  0  0  0  0  0  0  0  0  0  0
    4.1764   -3.7393    0.0000 N   0  0  0  0  0  0  0  0  0  0  0  0
    7.3396    0.3831    0.0000 N   0  0  0  0  0  0  0  0  0  0  0  0
    9.3780    5.9714    0.0000 C   0  0  0  0  0  0  0  0  0  0  0  0
    9.8780    6.8375    0.0000 C   0  0  0  0  0  0  0  0  0  0  0  0
    9.6368    5.0055    0.0000 C   0  0  0  0  0  0  0  0  0  0  0  0
    5.2308   -2.3651    0.0000 C   0  0  0  0  0  0  0  0  0  0  0  0
    6.1547   -1.9824    0.0000 C   0  0  0  0  0  0  0  0  0  0  0  0
   10.8439    7.0963    0.0000 C   0  0  0  0  0  0  0  0  0  0  0  0
    5.1003   -3.3566    0.0000 C   0  0  1  0  0  0  0  0  0  0  0  0
   10.5028    4.5055    0.0000 C   0  0  3  0  0  0  0  0  0  0  0  0
    6.2852   -0.9910    0.0000 C   0  0  0  0  0  0  0  0  0  0  0  0
   11.7099    6.5963    0.0000 C   0  0  0  0  0  0  0  0  0  0  0  0
    7.2091   -0.6083    0.0000 C   0  0  0  0  0  0  0  0  0  0  0  0
    2.9914   -6.1048    0.0000 C   0  0  0  0  0  0  0  0  0  0  0  0
   11.4687    4.7643    0.0000 C   0  0  0  0  0  0  0  0  0  0  0  0
    5.8936   -3.9653    0.0000 C   0  0  0  0  0  0  0  0  0  0  0  0
    9.4484    3.1314    0.0000 C   0  0  0  0  0  0  0  0  0  0  0  0
   11.9687    5.6304    0.0000 C   0  0  0  0  0  0  0  0  0  0  0  0
    4.0458   -4.7307    0.0000 C   0  0  0  0  0  0  0  0  0  0  0  0
    2.8609   -7.0963    0.0000 C   0  0  0  0  0  0  0  0  0  0  0  0
    2.0000   -5.9743    0.0000 C   0  0  0  0  0  0  0  0  0  0  0  0
    3.9829   -6.2354    0.0000 C   0  0  0  0  0  0  0  0  0  0  0  0
    9.3179    2.1399    0.0000 C   0  0  0  0  0  0  0  0  0  0  0  0
    8.2635    0.7658    0.0000 C   0  0  0  0  0  0  0  0  0  0  0  0
    8.9396    6.4098    0.0000 H   0  0  0  0  0  0  0  0  0  0  0  0
    8.8410    5.6614    0.0000 H   0  0  0  0  0  0  0  0  0  0  0  0
    9.8780    7.4575    0.0000 H   0  0  0  0  0  0  0  0  0  0  0  0
    9.2791    6.9979    0.0000 H   0  0  0  0  0  0  0  0  0  0  0  0
    9.0168    5.0055    0.0000 H   0  0  0  0  0  0  0  0  0  0  0  0
    9.4763    4.4066    0.0000 H   0  0  0  0  0  0  0  0  0  0  0  0
    5.0966   -1.7598    0.0000 H   0  0  0  0  0  0  0  0  0  0  0  0
    4.6114   -2.3922    0.0000 H   0  0  0  0  0  0  0  0  0  0  0  0
    6.2888   -2.5878    0.0000 H   0  0  0  0  0  0  0  0  0  0  0  0
    6.7741   -1.9554    0.0000 H   0  0  0  0  0  0  0  0  0  0  0  0
    5.0193   -3.9713    0.0000 H   0  0  0  0  0  0  0  0  0  0  0  0
   11.2823    7.5347    0.0000 H   0  0  0  0  0  0  0  0  0  0  0  0
   10.5339    7.6332    0.0000 H   0  0  0  0  0  0  0  0  0  0  0  0
   10.9690    4.0967    0.0000 H   0  0  0  0  0  0  0  0  0  0  0  0
    6.1510   -0.3857    0.0000 H   0  0  0  0  0  0  0  0  0  0  0  0
    5.6658   -1.0180    0.0000 H   0  0  0  0  0  0  0  0  0  0  0  0
   12.3299    6.5963    0.0000 H   0  0  0  0  0  0  0  0  0  0  0  0
   11.8704    7.1952    0.0000 H   0  0  0  0  0  0  0  0  0  0  0  0
    7.3433   -1.2136    0.0000 H   0  0  0  0  0  0  0  0  0  0  0  0
    7.8285   -0.5813    0.0000 H   0  0  0  0  0  0  0  0  0  0  0  0
    3.6845   -3.3618    0.0000 H   0  0  0  0  0  0  0  0  0  0  0  0
    9.3142    3.7367    0.0000 H   0  0  0  0  0  0  0  0  0  0  0  0
    8.8290    3.1043    0.0000 H   0  0  0  0  0  0  0  0  0  0  0  0
    6.8477    0.7606    0.0000 H   0  0  0  0  0  0  0  0  0  0  0  0
    2.2462   -7.0154    0.0000 H   0  0  0  0  0  0  0  0  0  0  0  0
    2.7800   -7.7110    0.0000 H   0  0  0  0  0  0  0  0  0  0  0  0
    3.4756   -7.1772    0.0000 H   0  0  0  0  0  0  0  0  0  0  0  0
    2.0809   -5.3596    0.0000 H   0  0  0  0  0  0  0  0  0  0  0  0
    1.3853   -5.8934    0.0000 H   0  0  0  0  0  0  0  0  0  0  0  0
    1.9191   -6.5890    0.0000 H   0  0  0  0  0  0  0  0  0  0  0  0
    3.9020   -6.8501    0.0000 H   0  0  0  0  0  0  0  0  0  0  0  0
    4.5976   -6.3163    0.0000 H   0  0  0  0  0  0  0  0  0  0  0  0
    4.0638   -5.6207    0.0000 H   0  0  0  0  0  0  0  0  0  0  0  0
    9.4521    1.5346    0.0000 H   0  0  0  0  0  0  0  0  0  0  0  0
    9.9373    2.1670    0.0000 H   0  0  0  0  0  0  0  0  0  0  0  0
    6.2550   -5.3342    0.0000 H   0  0  0  0  0  0  0  0  0  0  0  0
  1 17  1  0  0  0  0
  1 24  1  0  0  0  0
  2 21  1  0  0  0  0
  2 26  1  0  0  0  0
  3 30  1  0  0  0  0
  3 31  1  0  0  0  0
  4 23  1  0  0  0  0
  4 67  1  0  0  0  0
  5 23  2  0  0  0  0
  6 26  2  0  0  0  0
  7 31  2  0  0  0  0
 16  8  1  1  0  0  0
  8 26  1  0  0  0  0
  8 52  1  0  0  0  0
  9 20  1  0  0  0  0
  9 31  1  0  0  0  0
  9 55  1  0  0  0  0
 10 11  1  0  0  0  0
 10 12  1  0  0  0  0
 10 32  1  0  0  0  0
 10 33  1  0  0  0  0
 11 15  1  0  0  0  0
 11 34  1  0  0  0  0
 11 35  1  0  0  0  0
 12 17  1  0  0  0  0
 12 36  1  0  0  0  0
 12 37  1  0  0  0  0
 13 14  1  0  0  0  0
 13 16  1  0  0  0  0
 13 38  1  0  0  0  0
 13 39  1  0  0  0  0
 14 18  1  0  0  0  0
 14 40  1  0  0  0  0
 14 41  1  0  0  0  0
 15 19  1  0  0  0  0
 15 43  1  0  0  0  0
 15 44  1  0  0  0  0
 16 23  1  0  0  0  0
 16 42  1  0  0  0  0
 17 22  1  0  0  0  0
 17 45  1  0  0  0  0
 18 20  1  0  0  0  0
 18 46  1  0  0  0  0
 18 47  1  0  0  0  0
 19 25  1  0  0  0  0
 19 48  1  0  0  0  0
 19 49  1  0  0  0  0
 20 50  1  0  0  0  0
 20 51  1  0  0  0  0
 21 27  1  0  0  0  0
 21 28  1  0  0  0  0
 21 29  1  0  0  0  0
 22 25  3  0  0  0  0
 24 30  1  0  0  0  0
 24 53  1  0  0  0  0
 24 54  1  0  0  0  0
 27 56  1  0  0  0  0
 27 57  1  0  0  0  0
 27 58  1  0  0  0  0
 28 59  1  0  0  0  0
 28 60  1  0  0  0  0
 28 61  1  0  0  0  0
 29 62  1  0  0  0  0
 29 63  1  0  0  0  0
 29 64  1  0  0  0  0
 30 65  1  0  0  0  0
 30 66  1  0  0  0  0
M  END
> <PUBCHEM_COMPOUND_CID>
89997121

> <PUBCHEM_COMPOUND_CANONICALIZED>
1

> <PUBCHEM_CACTVS_COMPLEXITY>
645

> <PUBCHEM_CACTVS_HBOND_ACCEPTOR>
7

> <PUBCHEM_CACTVS_HBOND_DONOR>
3

> <PUBCHEM_CACTVS_ROTATABLE_BOND>
14

> <PUBCHEM_CACTVS_SUBSKEYS>
AAADcfB7OAAAAAAAAAAAAAAAAAAAAAAAAAAAAAAAAAAQAAAAAAAAHgAQCAAADHzhgAYCCALABgBIEACQGAgAAAAAAAAAAIGIAAEDABIAgCAOQAAEFgASAAGYyKAAAAAAAAAAAAAAAAAAAAAAAAAAAAAAAA==

> <PUBCHEM_IUPAC_OPENEYE_NAME>
(2S)-2-(tert-butoxycarbonylamino)-6-(2-cyclooct-2-yn-1-yloxyethoxycarbonylamino)hexanoic acid

> <PUBCHEM_IUPAC_CAS_NAME>
(2S)-6-[[2-(1-cyclooct-2-ynyloxy)ethoxy-oxomethyl]amino]-2-[[(2-methylpropan-2-yl)oxy-oxomethyl]amino]hexanoic acid

> <PUBCHEM_IUPAC_NAME_MARKUP>
(2<I>S</I>)-6-(2-cyclooct-2-yn-1-yloxyethoxycarbonylamino)-2-[(2-methylpropan-2-yl)oxycarbonylamino]hexanoic acid

> <PUBCHEM_IUPAC_NAME>
(2S)-6-(2-cyclooct-2-yn-1-yloxyethoxycarbonylamino)-2-[(2-methylpropan-2-yl)oxycarbonylamino]hexanoic acid

> <PUBCHEM_IUPAC_SYSTEMATIC_NAME>
(2S)-6-(2-cyclooct-2-yn-1-yloxyethoxycarbonylamino)-2-[(2-methylpropan-2-yl)oxycarbonylamino]hexanoic acid

> <PUBCHEM_IUPAC_TRADITIONAL_NAME>
(2S)-2-(tert-butoxycarbonylamino)-6-(2-cyclooct-2-yn-1-yloxyethoxycarbonylamino)hexanoic acid

> <PUBCHEM_IUPAC_INCHI>
InChI=1S/C22H36N2O7/c1-22(2,3)31-21(28)24-18(19(25)26)13-9-10-14-23-20(27)30-16-15-29-17-11-7-5-4-6-8-12-17/h17-18H,4-7,9-11,13-16H2,1-3H3,(H,23,27)(H,24,28)(H,25,26)/t17?,18-/m0/s1

> <PUBCHEM_IUPAC_INCHIKEY>
JPAQTSQWGLQYQW-ZVAWYAOSSA-N

> <PUBCHEM_XLOGP3_AA>
3.3

> <PUBCHEM_EXACT_MASS>
440.25225149

> <PUBCHEM_MOLECULAR_FORMULA>
C22H36N2O7

> <PUBCHEM_MOLECULAR_WEIGHT>
440.5

> <PUBCHEM_OPENEYE_CAN_SMILES>
CC(C)(C)OC(=O)NC(CCCCNC(=O)OCCOC1CCCCCC#C1)C(=O)O

> <PUBCHEM_OPENEYE_ISO_SMILES>
CC(C)(C)OC(=O)N[C@@H](CCCCNC(=O)OCCOC1CCCCCC#C1)C(=O)O

> <PUBCHEM_CACTVS_TPSA>
123

> <PUBCHEM_MONOISOTOPIC_WEIGHT>
440.25225149

> <PUBCHEM_TOTAL_CHARGE>
0

> <PUBCHEM_HEAVY_ATOM_COUNT>
31

> <PUBCHEM_ATOM_DEF_STEREO_COUNT>
1

> <PUBCHEM_ATOM_UDEF_STEREO_COUNT>
1

> <PUBCHEM_BOND_DEF_STEREO_COUNT>
0

> <PUBCHEM_BOND_UDEF_STEREO_COUNT>
0

> <PUBCHEM_ISOTOPIC_ATOM_COUNT>
0

> <PUBCHEM_COMPONENT_COUNT>
1

> <PUBCHEM_CACTVS_TAUTO_COUNT>
-1

> <PUBCHEM_COORDINATE_TYPE>
1
5
255

> <PUBCHEM_BONDANNOTATIONS>
17  1  3
16  8  5

$$$$
