 
  -OEChem-10192103412D

 80 82  0     1  0  0  0  0  0999 V2000
   10.3312   -0.7780    0.0000 O   0  0  0  0  0  0  0  0  0  0  0  0
    8.5991   -0.7780    0.0000 O   0  0  0  0  0  0  0  0  0  0  0  0
    6.8671    0.2220    0.0000 O   0  0  0  0  0  0  0  0  0  0  0  0
    5.1350    0.2220    0.0000 O   0  0  0  0  0  0  0  0  0  0  0  0
    6.8671   -2.7780    0.0000 O   0  0  0  0  0  0  0  0  0  0  0  0
   10.3312   -2.7780    0.0000 O   0  0  0  0  0  0  0  0  0  0  0  0
    8.5991   -3.7780    0.0000 O   0  0  0  0  0  0  0  0  0  0  0  0
   14.6613    3.7220    0.0000 O   0  0  0  0  0  0  0  0  0  0  0  0
   13.7953    0.2220    0.0000 O   0  0  0  0  0  0  0  0  0  0  0  0
    6.8671    2.2220    0.0000 O   0  0  0  0  0  0  0  0  0  0  0  0
    5.1350    3.2220    0.0000 O   0  0  0  0  0  0  0  0  0  0  0  0
    3.4030    2.2220    0.0000 O   0  0  0  0  0  0  0  0  0  0  0  0
    2.5369    0.7220    0.0000 O   0  0  0  0  0  0  0  0  0  0  0  0
   12.0632    3.2220    0.0000 C   0  0  0  0  0  0  0  0  0  0  0  0
   12.0632    2.2220    0.0000 C   0  0  3  0  0  0  0  0  0  0  0  0
   11.1972    1.7220    0.0000 C   0  0  0  0  0  0  0  0  0  0  0  0
   12.9292    3.7220    0.0000 C   0  0  0  0  0  0  0  0  0  0  0  0
   12.9292    1.7220    0.0000 C   0  0  0  0  0  0  0  0  0  0  0  0
   11.1972    0.7220    0.0000 C   0  0  0  0  0  0  0  0  0  0  0  0
   11.5632    4.0880    0.0000 C   0  0  0  0  0  0  0  0  0  0  0  0
   11.0632    3.2220    0.0000 C   0  0  0  0  0  0  0  0  0  0  0  0
   10.3312    0.2220    0.0000 C   0  0  3  0  0  0  0  0  0  0  0  0
    7.7331   -1.2780    0.0000 C   0  0  1  0  0  0  0  0  0  0  0  0
    9.4651   -1.2780    0.0000 C   0  0  2  0  0  0  0  0  0  0  0  0
    7.7331   -2.2780    0.0000 C   0  0  2  0  0  0  0  0  0  0  0  0
    9.4651   -2.2780    0.0000 C   0  0  1  0  0  0  0  0  0  0  0  0
    8.5991   -2.7780    0.0000 C   0  0  1  0  0  0  0  0  0  0  0  0
   13.7953    3.2220    0.0000 C   0  0  0  0  0  0  0  0  0  0  0  0
   13.7953    2.2220    0.0000 C   0  0  0  0  0  0  0  0  0  0  0  0
    6.8671   -0.7780    0.0000 C   0  0  0  0  0  0  0  0  0  0  0  0
   12.9292    0.7220    0.0000 C   0  0  0  0  0  0  0  0  0  0  0  0
    6.0010    0.7220    0.0000 C   0  0  2  0  0  0  0  0  0  0  0  0
    6.0010    1.7220    0.0000 C   0  0  1  0  0  0  0  0  0  0  0  0
    5.1350    2.2220    0.0000 C   0  0  2  0  0  0  0  0  0  0  0  0
    4.2690    1.7220    0.0000 C   0  0  1  0  0  0  0  0  0  0  0  0
    4.2690    0.7220    0.0000 C   0  0  1  0  0  0  0  0  0  0  0  0
    9.4651    0.7220    0.0000 C   0  0  0  0  0  0  0  0  0  0  0  0
    3.4030    0.2220    0.0000 C   0  0  0  0  0  0  0  0  0  0  0  0
   11.5263    2.5320    0.0000 H   0  0  0  0  0  0  0  0  0  0  0  0
   10.9851    2.3046    0.0000 H   0  0  0  0  0  0  0  0  0  0  0  0
   10.5866    1.6143    0.0000 H   0  0  0  0  0  0  0  0  0  0  0  0
   13.3278    4.1969    0.0000 H   0  0  0  0  0  0  0  0  0  0  0  0
   12.5307    4.1969    0.0000 H   0  0  0  0  0  0  0  0  0  0  0  0
   11.4092    0.1394    0.0000 H   0  0  0  0  0  0  0  0  0  0  0  0
   11.8078    0.8296    0.0000 H   0  0  0  0  0  0  0  0  0  0  0  0
   12.1002    4.3980    0.0000 H   0  0  0  0  0  0  0  0  0  0  0  0
   11.2532    4.6250    0.0000 H   0  0  0  0  0  0  0  0  0  0  0  0
   11.0263    3.7780    0.0000 H   0  0  0  0  0  0  0  0  0  0  0  0
   11.0632    3.8420    0.0000 H   0  0  0  0  0  0  0  0  0  0  0  0
   10.4432    3.2220    0.0000 H   0  0  0  0  0  0  0  0  0  0  0  0
   11.0632    2.6020    0.0000 H   0  0  0  0  0  0  0  0  0  0  0  0
    9.7942   -0.0880    0.0000 H   0  0  0  0  0  0  0  0  0  0  0  0
    7.7331   -0.6580    0.0000 H   0  0  0  0  0  0  0  0  0  0  0  0
   10.0021   -1.5880    0.0000 H   0  0  0  0  0  0  0  0  0  0  0  0
    7.7331   -2.8980    0.0000 H   0  0  0  0  0  0  0  0  0  0  0  0
    9.4651   -2.8980    0.0000 H   0  0  0  0  0  0  0  0  0  0  0  0
    9.1360   -3.0880    0.0000 H   0  0  0  0  0  0  0  0  0  0  0  0
   14.3322    1.9120    0.0000 H   0  0  0  0  0  0  0  0  0  0  0  0
    6.2565   -0.6704    0.0000 H   0  0  0  0  0  0  0  0  0  0  0  0
    6.6550   -1.3606    0.0000 H   0  0  0  0  0  0  0  0  0  0  0  0
   12.3187    0.8296    0.0000 H   0  0  0  0  0  0  0  0  0  0  0  0
   12.7172    0.1394    0.0000 H   0  0  0  0  0  0  0  0  0  0  0  0
    6.5380    1.0320    0.0000 H   0  0  0  0  0  0  0  0  0  0  0  0
    6.0010    2.3420    0.0000 H   0  0  0  0  0  0  0  0  0  0  0  0
    4.5981    2.5320    0.0000 H   0  0  0  0  0  0  0  0  0  0  0  0
    4.2690    2.3420    0.0000 H   0  0  0  0  0  0  0  0  0  0  0  0
    4.2690    0.1020    0.0000 H   0  0  0  0  0  0  0  0  0  0  0  0
    9.7751    1.2589    0.0000 H   0  0  0  0  0  0  0  0  0  0  0  0
    8.9282    1.0320    0.0000 H   0  0  0  0  0  0  0  0  0  0  0  0
    9.1551    0.1851    0.0000 H   0  0  0  0  0  0  0  0  0  0  0  0
    6.3301   -2.4680    0.0000 H   0  0  0  0  0  0  0  0  0  0  0  0
    3.0044   -0.2530    0.0000 H   0  0  0  0  0  0  0  0  0  0  0  0
    3.8015   -0.2530    0.0000 H   0  0  0  0  0  0  0  0  0  0  0  0
   10.8681   -2.4680    0.0000 H   0  0  0  0  0  0  0  0  0  0  0  0
    8.0622   -4.0880    0.0000 H   0  0  0  0  0  0  0  0  0  0  0  0
   13.7953   -0.3980    0.0000 H   0  0  0  0  0  0  0  0  0  0  0  0
    6.8671    2.8420    0.0000 H   0  0  0  0  0  0  0  0  0  0  0  0
    4.5981    3.5320    0.0000 H   0  0  0  0  0  0  0  0  0  0  0  0
    3.4030    2.8420    0.0000 H   0  0  0  0  0  0  0  0  0  0  0  0
    2.0000    0.4120    0.0000 H   0  0  0  0  0  0  0  0  0  0  0  0
  1 22  1  0  0  0  0
 24  1  1  1  0  0  0
  2 23  1  0  0  0  0
  2 24  1  0  0  0  0
  3 30  1  0  0  0  0
 32  3  1  6  0  0  0
  4 32  1  0  0  0  0
  4 36  1  0  0  0  0
 25  5  1  6  0  0  0
  5 71  1  0  0  0  0
 26  6  1  6  0  0  0
  6 74  1  0  0  0  0
 27  7  1  1  0  0  0
  7 75  1  0  0  0  0
  8 28  2  0  0  0  0
  9 31  1  0  0  0  0
  9 76  1  0  0  0  0
 33 10  1  1  0  0  0
 10 77  1  0  0  0  0
 34 11  1  6  0  0  0
 11 78  1  0  0  0  0
 35 12  1  1  0  0  0
 12 79  1  0  0  0  0
 13 38  1  0  0  0  0
 13 80  1  0  0  0  0
 14 15  1  0  0  0  0
 14 17  1  0  0  0  0
 14 20  1  0  0  0  0
 14 21  1  0  0  0  0
 15 16  1  0  0  0  0
 15 18  1  0  0  0  0
 15 39  1  0  0  0  0
 16 19  1  0  0  0  0
 16 40  1  0  0  0  0
 16 41  1  0  0  0  0
 17 28  1  0  0  0  0
 17 42  1  0  0  0  0
 17 43  1  0  0  0  0
 18 29  2  0  0  0  0
 18 31  1  0  0  0  0
 19 22  1  0  0  0  0
 19 44  1  0  0  0  0
 19 45  1  0  0  0  0
 20 46  1  0  0  0  0
 20 47  1  0  0  0  0
 20 48  1  0  0  0  0
 21 49  1  0  0  0  0
 21 50  1  0  0  0  0
 21 51  1  0  0  0  0
 22 37  1  0  0  0  0
 22 52  1  0  0  0  0
 23 25  1  0  0  0  0
 23 30  1  1  0  0  0
 23 53  1  0  0  0  0
 24 26  1  0  0  0  0
 24 54  1  0  0  0  0
 25 27  1  0  0  0  0
 25 55  1  0  0  0  0
 26 27  1  0  0  0  0
 26 56  1  0  0  0  0
 27 57  1  0  0  0  0
 28 29  1  0  0  0  0
 29 58  1  0  0  0  0
 30 59  1  0  0  0  0
 30 60  1  0  0  0  0
 31 61  1  0  0  0  0
 31 62  1  0  0  0  0
 32 33  1  0  0  0  0
 32 63  1  0  0  0  0
 33 34  1  0  0  0  0
 33 64  1  0  0  0  0
 34 35  1  0  0  0  0
 34 65  1  0  0  0  0
 35 36  1  0  0  0  0
 35 66  1  0  0  0  0
 36 38  1  6  0  0  0
 36 67  1  0  0  0  0
 37 68  1  0  0  0  0
 37 69  1  0  0  0  0
 37 70  1  0  0  0  0
 38 72  1  0  0  0  0
 38 73  1  0  0  0  0
M  END
> <PUBCHEM_COMPOUND_CID>
100962726

> <PUBCHEM_COMPOUND_CANONICALIZED>
1

> <PUBCHEM_CACTVS_COMPLEXITY>
819

> <PUBCHEM_CACTVS_HBOND_ACCEPTOR>
13

> <PUBCHEM_CACTVS_HBOND_DONOR>
8

> <PUBCHEM_CACTVS_ROTATABLE_BOND>
10

> <PUBCHEM_CACTVS_SUBSKEYS>
AAADcfB4PAAAAAAAAAAAAAAAAAAAAAAAAAAkSIAAAAAAAAAAAAAAGgAACAAADxSwgAMCCAAABgCIAqBSAAAAAAAgAAAACAEAAEgRFBIAAQAiUAAFgAAPEQPI6PyPgAAAAAAAAAAAAAAAAAAAAAAAAAAAAA==

> <PUBCHEM_IUPAC_OPENEYE_NAME>
3-(hydroxymethyl)-5,5-dimethyl-4-[3-[(2R,3R,4S,5S,6R)-3,4,5-trihydroxy-6-[[(2R,3R,4S,5S,6R)-3,4,5-trihydroxy-6-(hydroxymethyl)tetrahydropyran-2-yl]oxymethyl]tetrahydropyran-2-yl]oxybutyl]cyclohex-2-en-1-one

> <PUBCHEM_IUPAC_CAS_NAME>
3-(hydroxymethyl)-5,5-dimethyl-4-[3-[[(2R,3R,4S,5S,6R)-3,4,5-trihydroxy-6-[[(2R,3R,4S,5S,6R)-3,4,5-trihydroxy-6-(hydroxymethyl)-2-oxanyl]oxymethyl]-2-oxanyl]oxy]butyl]-1-cyclohex-2-enone

> <PUBCHEM_IUPAC_NAME_MARKUP>
3-(hydroxymethyl)-5,5-dimethyl-4-[3-[(2<I>R</I>,3<I>R</I>,4<I>S</I>,5<I>S</I>,6<I>R</I>)-3,4,5-trihydroxy-6-[[(2<I>R</I>,3<I>R</I>,4<I>S</I>,5<I>S</I>,6<I>R</I>)-3,4,5-trihydroxy-6-(hydroxymethyl)oxan-2-yl]oxymethyl]oxan-2-yl]oxybutyl]cyclohex-2-en-1-one

> <PUBCHEM_IUPAC_NAME>
3-(hydroxymethyl)-5,5-dimethyl-4-[3-[(2R,3R,4S,5S,6R)-3,4,5-trihydroxy-6-[[(2R,3R,4S,5S,6R)-3,4,5-trihydroxy-6-(hydroxymethyl)oxan-2-yl]oxymethyl]oxan-2-yl]oxybutyl]cyclohex-2-en-1-one

> <PUBCHEM_IUPAC_SYSTEMATIC_NAME>
3-(hydroxymethyl)-4-[3-[(2R,3R,4S,5S,6R)-6-[[(2R,3R,4S,5S,6R)-6-(hydroxymethyl)-3,4,5-tris(oxidanyl)oxan-2-yl]oxymethyl]-3,4,5-tris(oxidanyl)oxan-2-yl]oxybutyl]-5,5-dimethyl-cyclohex-2-en-1-one

> <PUBCHEM_IUPAC_TRADITIONAL_NAME>
5,5-dimethyl-3-methylol-4-[3-[(2R,3R,4S,5S,6R)-3,4,5-trihydroxy-6-[[(2R,3R,4S,5S,6R)-3,4,5-trihydroxy-6-methylol-tetrahydropyran-2-yl]oxymethyl]tetrahydropyran-2-yl]oxybutyl]cyclohex-2-en-1-one

> <PUBCHEM_IUPAC_INCHI>
InChI=1S/C25H42O13/c1-11(4-5-14-12(8-26)6-13(28)7-25(14,2)3)36-24-22(34)20(32)18(30)16(38-24)10-35-23-21(33)19(31)17(29)15(9-27)37-23/h6,11,14-24,26-27,29-34H,4-5,7-10H2,1-3H3/t11?,14?,15-,16-,17-,18-,19+,20+,21-,22-,23-,24-/m1/s1

> <PUBCHEM_IUPAC_INCHIKEY>
SMOPBNVVMHQRMR-FAEZOLNDSA-N

> <PUBCHEM_XLOGP3_AA>
-3.1

> <PUBCHEM_EXACT_MASS>
550.26254139

> <PUBCHEM_MOLECULAR_FORMULA>
C25H42O13

> <PUBCHEM_MOLECULAR_WEIGHT>
550.6

> <PUBCHEM_OPENEYE_CAN_SMILES>
CC(CCC1C(=CC(=O)CC1(C)C)CO)OC2C(C(C(C(O2)COC3C(C(C(C(O3)CO)O)O)O)O)O)O

> <PUBCHEM_OPENEYE_ISO_SMILES>
CC(CCC1C(=CC(=O)CC1(C)C)CO)O[C@H]2[C@@H]([C@H]([C@@H]([C@H](O2)CO[C@H]3[C@@H]([C@H]([C@@H]([C@H](O3)CO)O)O)O)O)O)O

> <PUBCHEM_CACTVS_TPSA>
216

> <PUBCHEM_MONOISOTOPIC_WEIGHT>
550.26254139

> <PUBCHEM_TOTAL_CHARGE>
0

> <PUBCHEM_HEAVY_ATOM_COUNT>
38

> <PUBCHEM_ATOM_DEF_STEREO_COUNT>
10

> <PUBCHEM_ATOM_UDEF_STEREO_COUNT>
2

> <PUBCHEM_BOND_DEF_STEREO_COUNT>
0

> <PUBCHEM_BOND_UDEF_STEREO_COUNT>
0

> <PUBCHEM_ISOTOPIC_ATOM_COUNT>
0

> <PUBCHEM_COMPONENT_COUNT>
1

> <PUBCHEM_CACTVS_TAUTO_COUNT>
-1

> <PUBCHEM_COORDINATE_TYPE>
1
5
255

> <PUBCHEM_BONDANNOTATIONS>
24  1  5
33  10  5
34  11  6
35  12  5
15  16  3
22  37  3
23  30  5
32  3  6
36  38  6
25  5  6
26  6  6
27  7  5

$$$$
