 
  -OEChem-10192103532D

 14 14  0     0  0  0  0  0  0999 V2000
    4.5576   -1.0116    0.0000 S   0  0  0  0  0  0  0  0  0  0  0  0
    3.4699    1.3362    0.0000 O   0  0  0  0  0  0  0  0  0  0  0  0
    6.3177   -0.7329    0.0000 O   0  0  0  0  0  0  0  0  0  0  0  0
    2.5896   -1.7110    0.0000 O   0  0  0  0  0  0  0  0  0  0  0  0
    2.0544   -0.0637    0.0000 O   0  0  0  0  0  0  0  0  0  0  0  0
    3.7486   -0.4239    0.0000 C   0  0  0  0  0  0  0  0  0  0  0  0
    4.0576    0.5272    0.0000 C   0  0  0  0  0  0  0  0  0  0  0  0
    5.0576    0.5272    0.0000 C   0  0  0  0  0  0  0  0  0  0  0  0
    5.3667   -0.4239    0.0000 C   0  0  0  0  0  0  0  0  0  0  0  0
    2.7976   -0.7329    0.0000 C   0  0  0  0  0  0  0  0  0  0  0  0
    5.4221    1.0288    0.0000 H   0  0  0  0  0  0  0  0  0  0  0  0
    3.7220    1.9026    0.0000 H   0  0  0  0  0  0  0  0  0  0  0  0
    6.7785   -0.3180    0.0000 H   0  0  0  0  0  0  0  0  0  0  0  0
    2.0000   -1.9026    0.0000 H   0  0  0  0  0  0  0  0  0  0  0  0
  1  6  1  0  0  0  0
  1  9  1  0  0  0  0
  2  7  1  0  0  0  0
  2 12  1  0  0  0  0
  3  9  1  0  0  0  0
  3 13  1  0  0  0  0
  4 10  1  0  0  0  0
  4 14  1  0  0  0  0
  5 10  2  0  0  0  0
  6  7  2  0  0  0  0
  6 10  1  0  0  0  0
  7  8  1  0  0  0  0
  8  9  2  0  0  0  0
  8 11  1  0  0  0  0
M  END
> <PUBCHEM_COMPOUND_CID>
69332609

> <PUBCHEM_COMPOUND_CANONICALIZED>
1

> <PUBCHEM_CACTVS_COMPLEXITY>
149

> <PUBCHEM_CACTVS_HBOND_ACCEPTOR>
5

> <PUBCHEM_CACTVS_HBOND_DONOR>
3

> <PUBCHEM_CACTVS_ROTATABLE_BOND>
1

> <PUBCHEM_CACTVS_SUBSKEYS>
AAADcYBgOABAAAAAAAAAAAAAAAAAASAAAAAAAAAAAAAAAAABgAAAGgQACAAACASA0AAwD4AAAgiMACDSCAADAIAkKBBAiBsGCMgIJzaiFBKAUUAl4BUomQaIJAAAAAAAAAAAAAAAAAAAAAAAAAAAAAAAAA==

> <PUBCHEM_IUPAC_OPENEYE_NAME>
3,5-dihydroxythiophene-2-carboxylic acid

> <PUBCHEM_IUPAC_CAS_NAME>
3,5-dihydroxy-2-thiophenecarboxylic acid

> <PUBCHEM_IUPAC_NAME_MARKUP>
3,5-dihydroxythiophene-2-carboxylic acid

> <PUBCHEM_IUPAC_NAME>
3,5-dihydroxythiophene-2-carboxylic acid

> <PUBCHEM_IUPAC_SYSTEMATIC_NAME>
3,5-bis(oxidanyl)thiophene-2-carboxylic acid

> <PUBCHEM_IUPAC_TRADITIONAL_NAME>
3,5-dihydroxy-2-thenoic acid

> <PUBCHEM_IUPAC_INCHI>
InChI=1S/C5H4O4S/c6-2-1-3(7)10-4(2)5(8)9/h1,6-7H,(H,8,9)

> <PUBCHEM_IUPAC_INCHIKEY>
BUTHAZJSPMNHQB-UHFFFAOYSA-N

> <PUBCHEM_XLOGP3_AA>
1.6

> <PUBCHEM_EXACT_MASS>
159.98302978

> <PUBCHEM_MOLECULAR_FORMULA>
C5H4O4S

> <PUBCHEM_MOLECULAR_WEIGHT>
160.15

> <PUBCHEM_OPENEYE_CAN_SMILES>
C1=C(SC(=C1O)C(=O)O)O

> <PUBCHEM_OPENEYE_ISO_SMILES>
C1=C(SC(=C1O)C(=O)O)O

> <PUBCHEM_CACTVS_TPSA>
106

> <PUBCHEM_MONOISOTOPIC_WEIGHT>
159.98302978

> <PUBCHEM_TOTAL_CHARGE>
0

> <PUBCHEM_HEAVY_ATOM_COUNT>
10

> <PUBCHEM_ATOM_DEF_STEREO_COUNT>
0

> <PUBCHEM_ATOM_UDEF_STEREO_COUNT>
0

> <PUBCHEM_BOND_DEF_STEREO_COUNT>
0

> <PUBCHEM_BOND_UDEF_STEREO_COUNT>
0

> <PUBCHEM_ISOTOPIC_ATOM_COUNT>
0

> <PUBCHEM_COMPONENT_COUNT>
1

> <PUBCHEM_CACTVS_TAUTO_COUNT>
-1

> <PUBCHEM_COORDINATE_TYPE>
1
5
255

> <PUBCHEM_BONDANNOTATIONS>
1  6  8
1  9  8
6  7  8
7  8  8
8  9  8

$$$$
