 
  -OEChem-10192104302D

 69 68  0     1  0  0  0  0  0999 V2000
    5.1350    1.5000    0.0000 O   0  0  0  0  0  0  0  0  0  0  0  0
    2.5369   -0.0000    0.0000 O   0  0  0  0  0  0  0  0  0  0  0  0
    4.2690    1.7320    0.0000 O   0  0  0  0  0  0  0  0  0  0  0  0
    4.2690   -1.7320    0.0000 O   0  0  0  0  0  0  0  0  0  0  0  0
    3.4030   -1.5000    0.0000 O   0  0  0  0  0  0  0  0  0  0  0  0
    2.7690    0.8660    0.0000 O   0  0  0  0  0  0  0  0  0  0  0  0
    5.7690   -0.8660    0.0000 O   0  0  0  0  0  0  0  0  0  0  0  0
    9.4651   -0.0000    0.0000 C   0  0  0  0  0  0  0  0  0  0  0  0
    8.5991    0.5000    0.0000 C   0  0  0  0  0  0  0  0  0  0  0  0
   10.3312    0.5000    0.0000 C   0  0  0  0  0  0  0  0  0  0  0  0
    7.7331   -0.0000    0.0000 C   0  0  0  0  0  0  0  0  0  0  0  0
   11.1972   -0.0000    0.0000 C   0  0  0  0  0  0  0  0  0  0  0  0
    6.8671    0.5000    0.0000 C   0  0  0  0  0  0  0  0  0  0  0  0
   12.0632    0.5000    0.0000 C   0  0  0  0  0  0  0  0  0  0  0  0
   12.9292   -0.0000    0.0000 C   0  0  0  0  0  0  0  0  0  0  0  0
    6.0010    0.0000    0.0000 C   0  0  0  0  0  0  0  0  0  0  0  0
   13.7953    0.5000    0.0000 C   0  0  0  0  0  0  0  0  0  0  0  0
    5.1350    0.5000    0.0000 C   0  0  3  0  0  0  0  0  0  0  0  0
   14.6613   -0.0000    0.0000 C   0  0  0  0  0  0  0  0  0  0  0  0
   15.5273    0.5000    0.0000 C   0  0  0  0  0  0  0  0  0  0  0  0
    4.2690    0.0000    0.0000 C   0  0  0  0  0  0  0  0  0  0  0  0
   16.3933   -0.0000    0.0000 C   0  0  0  0  0  0  0  0  0  0  0  0
   17.2594    0.5000    0.0000 C   0  0  0  0  0  0  0  0  0  0  0  0
   18.1254   -0.0000    0.0000 C   0  0  0  0  0  0  0  0  0  0  0  0
    3.4030   -0.5000    0.0000 C   0  0  0  0  0  0  0  0  0  0  0  0
    3.7690    0.8660    0.0000 C   0  0  0  0  0  0  0  0  0  0  0  0
    4.7690   -0.8660    0.0000 C   0  0  0  0  0  0  0  0  0  0  0  0
   18.9914    0.5000    0.0000 C   0  0  0  0  0  0  0  0  0  0  0  0
   19.8574   -0.0000    0.0000 C   0  0  0  0  0  0  0  0  0  0  0  0
    9.0666   -0.4749    0.0000 H   0  0  0  0  0  0  0  0  0  0  0  0
    9.8637   -0.4749    0.0000 H   0  0  0  0  0  0  0  0  0  0  0  0
    8.9976    0.9749    0.0000 H   0  0  0  0  0  0  0  0  0  0  0  0
    8.2006    0.9749    0.0000 H   0  0  0  0  0  0  0  0  0  0  0  0
   10.7297    0.9749    0.0000 H   0  0  0  0  0  0  0  0  0  0  0  0
    9.9326    0.9749    0.0000 H   0  0  0  0  0  0  0  0  0  0  0  0
    7.3346   -0.4749    0.0000 H   0  0  0  0  0  0  0  0  0  0  0  0
    8.1316   -0.4749    0.0000 H   0  0  0  0  0  0  0  0  0  0  0  0
   10.7987   -0.4749    0.0000 H   0  0  0  0  0  0  0  0  0  0  0  0
   11.5957   -0.4749    0.0000 H   0  0  0  0  0  0  0  0  0  0  0  0
    7.2656    0.9749    0.0000 H   0  0  0  0  0  0  0  0  0  0  0  0
    6.4685    0.9749    0.0000 H   0  0  0  0  0  0  0  0  0  0  0  0
   12.4617    0.9749    0.0000 H   0  0  0  0  0  0  0  0  0  0  0  0
   11.6647    0.9749    0.0000 H   0  0  0  0  0  0  0  0  0  0  0  0
   12.5307   -0.4749    0.0000 H   0  0  0  0  0  0  0  0  0  0  0  0
   13.3278   -0.4749    0.0000 H   0  0  0  0  0  0  0  0  0  0  0  0
    5.6025   -0.4749    0.0000 H   0  0  0  0  0  0  0  0  0  0  0  0
    6.3996   -0.4749    0.0000 H   0  0  0  0  0  0  0  0  0  0  0  0
   14.1938    0.9749    0.0000 H   0  0  0  0  0  0  0  0  0  0  0  0
   13.3967    0.9749    0.0000 H   0  0  0  0  0  0  0  0  0  0  0  0
    5.6720    0.8100    0.0000 H   0  0  0  0  0  0  0  0  0  0  0  0
   14.2628   -0.4749    0.0000 H   0  0  0  0  0  0  0  0  0  0  0  0
   15.0598   -0.4749    0.0000 H   0  0  0  0  0  0  0  0  0  0  0  0
   15.9258    0.9749    0.0000 H   0  0  0  0  0  0  0  0  0  0  0  0
   15.1288    0.9749    0.0000 H   0  0  0  0  0  0  0  0  0  0  0  0
   15.9948   -0.4749    0.0000 H   0  0  0  0  0  0  0  0  0  0  0  0
   16.7919   -0.4749    0.0000 H   0  0  0  0  0  0  0  0  0  0  0  0
   17.6579    0.9749    0.0000 H   0  0  0  0  0  0  0  0  0  0  0  0
   16.8608    0.9749    0.0000 H   0  0  0  0  0  0  0  0  0  0  0  0
   17.7269   -0.4749    0.0000 H   0  0  0  0  0  0  0  0  0  0  0  0
   18.5239   -0.4749    0.0000 H   0  0  0  0  0  0  0  0  0  0  0  0
    5.6720    1.8100    0.0000 H   0  0  0  0  0  0  0  0  0  0  0  0
   19.3899    0.9749    0.0000 H   0  0  0  0  0  0  0  0  0  0  0  0
   18.5929    0.9749    0.0000 H   0  0  0  0  0  0  0  0  0  0  0  0
   19.5474   -0.5369    0.0000 H   0  0  0  0  0  0  0  0  0  0  0  0
   20.3944   -0.3100    0.0000 H   0  0  0  0  0  0  0  0  0  0  0  0
   20.1674    0.5369    0.0000 H   0  0  0  0  0  0  0  0  0  0  0  0
    2.0000   -0.3100    0.0000 H   0  0  0  0  0  0  0  0  0  0  0  0
    3.9590    2.2690    0.0000 H   0  0  0  0  0  0  0  0  0  0  0  0
    4.5790   -2.2690    0.0000 H   0  0  0  0  0  0  0  0  0  0  0  0
  1 18  1  0  0  0  0
  1 61  1  0  0  0  0
  2 25  1  0  0  0  0
  2 67  1  0  0  0  0
  3 26  1  0  0  0  0
  3 68  1  0  0  0  0
  4 27  1  0  0  0  0
  4 69  1  0  0  0  0
  5 25  2  0  0  0  0
  6 26  2  0  0  0  0
  7 27  2  0  0  0  0
  8  9  1  0  0  0  0
  8 10  1  0  0  0  0
  8 30  1  0  0  0  0
  8 31  1  0  0  0  0
  9 11  1  0  0  0  0
  9 32  1  0  0  0  0
  9 33  1  0  0  0  0
 10 12  1  0  0  0  0
 10 34  1  0  0  0  0
 10 35  1  0  0  0  0
 11 13  1  0  0  0  0
 11 36  1  0  0  0  0
 11 37  1  0  0  0  0
 12 14  1  0  0  0  0
 12 38  1  0  0  0  0
 12 39  1  0  0  0  0
 13 16  1  0  0  0  0
 13 40  1  0  0  0  0
 13 41  1  0  0  0  0
 14 15  1  0  0  0  0
 14 42  1  0  0  0  0
 14 43  1  0  0  0  0
 15 17  1  0  0  0  0
 15 44  1  0  0  0  0
 15 45  1  0  0  0  0
 16 18  1  0  0  0  0
 16 46  1  0  0  0  0
 16 47  1  0  0  0  0
 17 19  1  0  0  0  0
 17 48  1  0  0  0  0
 17 49  1  0  0  0  0
 18 21  1  0  0  0  0
 18 50  1  0  0  0  0
 19 20  1  0  0  0  0
 19 51  1  0  0  0  0
 19 52  1  0  0  0  0
 20 22  1  0  0  0  0
 20 53  1  0  0  0  0
 20 54  1  0  0  0  0
 21 25  1  0  0  0  0
 21 26  1  0  0  0  0
 21 27  1  0  0  0  0
 22 23  1  0  0  0  0
 22 55  1  0  0  0  0
 22 56  1  0  0  0  0
 23 24  1  0  0  0  0
 23 57  1  0  0  0  0
 23 58  1  0  0  0  0
 24 28  1  0  0  0  0
 24 59  1  0  0  0  0
 24 60  1  0  0  0  0
 28 29  1  0  0  0  0
 28 62  1  0  0  0  0
 28 63  1  0  0  0  0
 29 64  1  0  0  0  0
 29 65  1  0  0  0  0
 29 66  1  0  0  0  0
M  END
> <PUBCHEM_COMPOUND_CID>
88426003

> <PUBCHEM_COMPOUND_CANONICALIZED>
1

> <PUBCHEM_CACTVS_COMPLEXITY>
440

> <PUBCHEM_CACTVS_HBOND_ACCEPTOR>
7

> <PUBCHEM_CACTVS_HBOND_DONOR>
4

> <PUBCHEM_CACTVS_ROTATABLE_BOND>
20

> <PUBCHEM_CACTVS_SUBSKEYS>
AAADcfB4OAAAAAAAAAAAAAAAAAAAAAAAAAAAAAAAAAAAAAAAAAAAGgAACAAADhSggAICCAAAAgAIAACQCAAAAAAAAAAAAAEAAAAAEBYIAAAAQAAFIAAAAAGIyOCNAAAAAAAAAAAAAAAAAAAAAAAAAAAAAA==

> <PUBCHEM_IUPAC_OPENEYE_NAME>
2-hydroxynonadecane-1,1,1-tricarboxylic acid

> <PUBCHEM_IUPAC_CAS_NAME>
2-hydroxynonadecane-1,1,1-tricarboxylic acid

> <PUBCHEM_IUPAC_NAME_MARKUP>
2-hydroxynonadecane-1,1,1-tricarboxylic acid

> <PUBCHEM_IUPAC_NAME>
2-hydroxynonadecane-1,1,1-tricarboxylic acid

> <PUBCHEM_IUPAC_SYSTEMATIC_NAME>
2-oxidanylnonadecane-1,1,1-tricarboxylic acid

> <PUBCHEM_IUPAC_TRADITIONAL_NAME>
2-hydroxynonadecane-1,1,1-tricarboxylic acid

> <PUBCHEM_IUPAC_INCHI>
InChI=1S/C22H40O7/c1-2-3-4-5-6-7-8-9-10-11-12-13-14-15-16-17-18(23)22(19(24)25,20(26)27)21(28)29/h18,23H,2-17H2,1H3,(H,24,25)(H,26,27)(H,28,29)

> <PUBCHEM_IUPAC_INCHIKEY>
ZKTWPOHQXISPED-UHFFFAOYSA-N

> <PUBCHEM_XLOGP3_AA>
7.3

> <PUBCHEM_EXACT_MASS>
416.27740361

> <PUBCHEM_MOLECULAR_FORMULA>
C22H40O7

> <PUBCHEM_MOLECULAR_WEIGHT>
416.5

> <PUBCHEM_OPENEYE_CAN_SMILES>
CCCCCCCCCCCCCCCCCC(C(C(=O)O)(C(=O)O)C(=O)O)O

> <PUBCHEM_OPENEYE_ISO_SMILES>
CCCCCCCCCCCCCCCCCC(C(C(=O)O)(C(=O)O)C(=O)O)O

> <PUBCHEM_CACTVS_TPSA>
132

> <PUBCHEM_MONOISOTOPIC_WEIGHT>
416.27740361

> <PUBCHEM_TOTAL_CHARGE>
0

> <PUBCHEM_HEAVY_ATOM_COUNT>
29

> <PUBCHEM_ATOM_DEF_STEREO_COUNT>
0

> <PUBCHEM_ATOM_UDEF_STEREO_COUNT>
1

> <PUBCHEM_BOND_DEF_STEREO_COUNT>
0

> <PUBCHEM_BOND_UDEF_STEREO_COUNT>
0

> <PUBCHEM_ISOTOPIC_ATOM_COUNT>
0

> <PUBCHEM_COMPONENT_COUNT>
1

> <PUBCHEM_CACTVS_TAUTO_COUNT>
-1

> <PUBCHEM_COORDINATE_TYPE>
1
5
255

> <PUBCHEM_BONDANNOTATIONS>
18  1  3

$$$$
