 
  -OEChem-10192103312D

 50 50  0     1  0  0  0  0  0999 V2000
    9.9098   -2.8447    0.0000 O   0  0  0  0  0  0  0  0  0  0  0  0
   12.7297    2.5032    0.0000 O   0  0  0  0  0  0  0  0  0  0  0  0
    2.4608   -2.2160    0.0000 O   0  0  0  0  0  0  0  0  0  0  0  0
    3.6197   -3.5032    0.0000 O   0  0  0  0  0  0  0  0  0  0  0  0
   10.1886   -1.0846    0.0000 C   0  0  3  0  0  0  0  0  0  0  0  0
   10.9976   -0.4968    0.0000 C   0  0  3  0  0  0  0  0  0  0  0  0
    9.2376   -0.7756    0.0000 C   0  0  0  0  0  0  0  0  0  0  0  0
    8.4944   -1.4447    0.0000 C   0  0  0  0  0  0  0  0  0  0  0  0
    7.5434   -1.1357    0.0000 C   0  0  0  0  0  0  0  0  0  0  0  0
   10.4976   -2.0356    0.0000 C   0  0  0  0  0  0  0  0  0  0  0  0
   11.8066   -1.0846    0.0000 C   0  0  0  0  0  0  0  0  0  0  0  0
    6.8002   -1.8048    0.0000 C   0  0  0  0  0  0  0  0  0  0  0  0
   11.4976   -2.0356    0.0000 C   0  0  0  0  0  0  0  0  0  0  0  0
   10.9976    0.5032    0.0000 C   0  0  0  0  0  0  0  0  0  0  0  0
    5.8492   -1.4958    0.0000 C   0  0  0  0  0  0  0  0  0  0  0  0
    5.1060   -2.1649    0.0000 C   0  0  0  0  0  0  0  0  0  0  0  0
   11.8637    1.0032    0.0000 C   0  0  0  0  0  0  0  0  0  0  0  0
   11.8637    2.0032    0.0000 C   0  0  3  0  0  0  0  0  0  0  0  0
    4.1550   -1.8559    0.0000 C   0  0  0  0  0  0  0  0  0  0  0  0
   10.9976    2.5032    0.0000 C   0  0  0  0  0  0  0  0  0  0  0  0
   10.9976    3.5032    0.0000 C   0  0  0  0  0  0  0  0  0  0  0  0
    3.4118   -2.5250    0.0000 C   0  0  0  0  0  0  0  0  0  0  0  0
   10.0916   -0.4722    0.0000 H   0  0  0  0  0  0  0  0  0  0  0  0
   10.4452   -0.2153    0.0000 H   0  0  0  0  0  0  0  0  0  0  0  0
    9.5286   -0.2281    0.0000 H   0  0  0  0  0  0  0  0  0  0  0  0
    8.7490   -0.3939    0.0000 H   0  0  0  0  0  0  0  0  0  0  0  0
    8.2033   -1.9921    0.0000 H   0  0  0  0  0  0  0  0  0  0  0  0
    8.9830   -1.8264    0.0000 H   0  0  0  0  0  0  0  0  0  0  0  0
    7.8344   -0.5883    0.0000 H   0  0  0  0  0  0  0  0  0  0  0  0
    7.0548   -0.7540    0.0000 H   0  0  0  0  0  0  0  0  0  0  0  0
   12.3963   -0.8930    0.0000 H   0  0  0  0  0  0  0  0  0  0  0  0
    6.5091   -2.3522    0.0000 H   0  0  0  0  0  0  0  0  0  0  0  0
    7.2888   -2.1865    0.0000 H   0  0  0  0  0  0  0  0  0  0  0  0
   11.8621   -2.5372    0.0000 H   0  0  0  0  0  0  0  0  0  0  0  0
   10.4607    0.8132    0.0000 H   0  0  0  0  0  0  0  0  0  0  0  0
    6.1402   -0.9484    0.0000 H   0  0  0  0  0  0  0  0  0  0  0  0
    5.3606   -1.1141    0.0000 H   0  0  0  0  0  0  0  0  0  0  0  0
    4.8149   -2.7124    0.0000 H   0  0  0  0  0  0  0  0  0  0  0  0
    5.5946   -2.5466    0.0000 H   0  0  0  0  0  0  0  0  0  0  0  0
   12.4006    0.6932    0.0000 H   0  0  0  0  0  0  0  0  0  0  0  0
   12.4006    1.6932    0.0000 H   0  0  0  0  0  0  0  0  0  0  0  0
    4.4460   -1.3085    0.0000 H   0  0  0  0  0  0  0  0  0  0  0  0
    3.6664   -1.4742    0.0000 H   0  0  0  0  0  0  0  0  0  0  0  0
   10.3870    2.6109    0.0000 H   0  0  0  0  0  0  0  0  0  0  0  0
   10.7856    1.9206    0.0000 H   0  0  0  0  0  0  0  0  0  0  0  0
   11.6176    3.5032    0.0000 H   0  0  0  0  0  0  0  0  0  0  0  0
   10.9976    4.1232    0.0000 H   0  0  0  0  0  0  0  0  0  0  0  0
   10.3776    3.5032    0.0000 H   0  0  0  0  0  0  0  0  0  0  0  0
   12.7297    3.1232    0.0000 H   0  0  0  0  0  0  0  0  0  0  0  0
    2.0000   -2.6309    0.0000 H   0  0  0  0  0  0  0  0  0  0  0  0
  1 10  2  0  0  0  0
  2 18  1  0  0  0  0
  2 49  1  0  0  0  0
  3 22  1  0  0  0  0
  3 50  1  0  0  0  0
  4 22  2  0  0  0  0
  5  6  1  0  0  0  0
  5  7  1  0  0  0  0
  5 10  1  0  0  0  0
  5 23  1  0  0  0  0
  6 11  1  0  0  0  0
  6 14  1  0  0  0  0
  6 24  1  0  0  0  0
  7  8  1  0  0  0  0
  7 25  1  0  0  0  0
  7 26  1  0  0  0  0
  8  9  1  0  0  0  0
  8 27  1  0  0  0  0
  8 28  1  0  0  0  0
  9 12  1  0  0  0  0
  9 29  1  0  0  0  0
  9 30  1  0  0  0  0
 10 13  1  0  0  0  0
 11 13  2  0  0  0  0
 11 31  1  0  0  0  0
 12 15  1  0  0  0  0
 12 32  1  0  0  0  0
 12 33  1  0  0  0  0
 13 34  1  0  0  0  0
 14 17  2  0  0  0  0
 14 35  1  0  0  0  0
 15 16  1  0  0  0  0
 15 36  1  0  0  0  0
 15 37  1  0  0  0  0
 16 19  1  0  0  0  0
 16 38  1  0  0  0  0
 16 39  1  0  0  0  0
 17 18  1  0  0  0  0
 17 40  1  0  0  0  0
 18 20  1  0  0  0  0
 18 41  1  0  0  0  0
 19 22  1  0  0  0  0
 19 42  1  0  0  0  0
 19 43  1  0  0  0  0
 20 21  1  0  0  0  0
 20 44  1  0  0  0  0
 20 45  1  0  0  0  0
 21 46  1  0  0  0  0
 21 47  1  0  0  0  0
 21 48  1  0  0  0  0
M  END
> <PUBCHEM_COMPOUND_CID>
24978539

> <PUBCHEM_COMPOUND_CANONICALIZED>
1

> <PUBCHEM_CACTVS_COMPLEXITY>
411

> <PUBCHEM_CACTVS_HBOND_ACCEPTOR>
4

> <PUBCHEM_CACTVS_HBOND_DONOR>
2

> <PUBCHEM_CACTVS_ROTATABLE_BOND>
11

> <PUBCHEM_CACTVS_SUBSKEYS>
AAADceB4OAAAAAAAAAAAAAAAAAAAAQAAAAAAAAAAAAAAAAAAAAAAGgAACAAADRSggAICCAAAAgCIAKDSCAAAAAAgAAAICAEAAEgAFBIAAQAAUAAEgAAIEYOIyOCOgAAAAAAAAAAAAAAAAAAAAAAAAAAAAA==

> <PUBCHEM_IUPAC_OPENEYE_NAME>
8-[2-[(E)-3-hydroxypent-1-enyl]-5-oxo-cyclopent-3-en-1-yl]octanoic acid

> <PUBCHEM_IUPAC_CAS_NAME>
8-[2-[(E)-3-hydroxypent-1-enyl]-5-oxo-1-cyclopent-3-enyl]octanoic acid

> <PUBCHEM_IUPAC_NAME_MARKUP>
8-[2-[(<I>E</I>)-3-hydroxypent-1-enyl]-5-oxocyclopent-3-en-1-yl]octanoic acid

> <PUBCHEM_IUPAC_NAME>
8-[2-[(E)-3-hydroxypent-1-enyl]-5-oxocyclopent-3-en-1-yl]octanoic acid

> <PUBCHEM_IUPAC_SYSTEMATIC_NAME>
8-[2-oxidanylidene-5-[(E)-3-oxidanylpent-1-enyl]cyclopent-3-en-1-yl]octanoic acid

> <PUBCHEM_IUPAC_TRADITIONAL_NAME>
8-[2-[(E)-3-hydroxypent-1-enyl]-5-keto-cyclopent-3-en-1-yl]caprylic acid

> <PUBCHEM_IUPAC_INCHI>
InChI=1S/C18H28O4/c1-2-15(19)12-10-14-11-13-17(20)16(14)8-6-4-3-5-7-9-18(21)22/h10-16,19H,2-9H2,1H3,(H,21,22)/b12-10+

> <PUBCHEM_IUPAC_INCHIKEY>
OXXJZDJLYSMGIQ-ZRDIBKRKSA-N

> <PUBCHEM_XLOGP3_AA>
3.5

> <PUBCHEM_EXACT_MASS>
308.19875937

> <PUBCHEM_MOLECULAR_FORMULA>
C18H28O4

> <PUBCHEM_MOLECULAR_WEIGHT>
308.4

> <PUBCHEM_OPENEYE_CAN_SMILES>
CCC(C=CC1C=CC(=O)C1CCCCCCCC(=O)O)O

> <PUBCHEM_OPENEYE_ISO_SMILES>
CCC(/C=C/C1C=CC(=O)C1CCCCCCCC(=O)O)O

> <PUBCHEM_CACTVS_TPSA>
74.6

> <PUBCHEM_MONOISOTOPIC_WEIGHT>
308.19875937

> <PUBCHEM_TOTAL_CHARGE>
0

> <PUBCHEM_HEAVY_ATOM_COUNT>
22

> <PUBCHEM_ATOM_DEF_STEREO_COUNT>
0

> <PUBCHEM_ATOM_UDEF_STEREO_COUNT>
3

> <PUBCHEM_BOND_DEF_STEREO_COUNT>
1

> <PUBCHEM_BOND_UDEF_STEREO_COUNT>
0

> <PUBCHEM_ISOTOPIC_ATOM_COUNT>
0

> <PUBCHEM_COMPONENT_COUNT>
1

> <PUBCHEM_CACTVS_TAUTO_COUNT>
-1

> <PUBCHEM_COORDINATE_TYPE>
1
5
255

> <PUBCHEM_BONDANNOTATIONS>
18  2  3
5  7  3
6  14  3

$$$$
