 
  -OEChem-10192104202D

 70 71  0     1  0  0  0  0  0999 V2000
    4.5981   -0.3569    0.0000 O   0  0  0  0  0  0  0  0  0  0  0  0
    7.1962    4.1431    0.0000 O   0  0  0  0  0  0  0  0  0  0  0  0
    7.4321   -1.1575    0.0000 O   0  0  0  0  0  0  0  0  0  0  0  0
    8.0622    0.6431    0.0000 O   0  0  0  0  0  0  0  0  0  0  0  0
    9.4536   -4.1431    0.0000 O   0  0  0  0  0  0  0  0  0  0  0  0
   12.5147   -2.2379    0.0000 O   0  0  0  0  0  0  0  0  0  0  0  0
    6.2731   -2.4447    0.0000 N   0  0  0  0  0  0  0  0  0  0  0  0
    6.3301   -0.3569    0.0000 N   0  0  0  0  0  0  0  0  0  0  0  0
    7.1962    2.1431    0.0000 N   0  0  0  0  0  0  0  0  0  0  0  0
    8.9184   -2.4958    0.0000 N   0  0  0  0  0  0  0  0  0  0  0  0
   11.3557   -3.5250    0.0000 N   0  0  0  0  0  0  0  0  0  0  0  0
    5.4641   -1.8569    0.0000 C   0  0  3  0  0  0  0  0  0  0  0  0
    4.6551   -2.4447    0.0000 C   0  0  0  0  0  0  0  0  0  0  0  0
    4.9641   -3.3958    0.0000 C   0  0  0  0  0  0  0  0  0  0  0  0
    5.9641   -3.3958    0.0000 C   0  0  0  0  0  0  0  0  0  0  0  0
    5.4641   -0.8569    0.0000 C   0  0  0  0  0  0  0  0  0  0  0  0
    6.3301    0.6431    0.0000 C   0  0  3  0  0  0  0  0  0  0  0  0
    5.4641    1.1431    0.0000 C   0  0  0  0  0  0  0  0  0  0  0  0
    7.2242   -2.1357    0.0000 C   0  0  0  0  0  0  0  0  0  0  0  0
    7.1962    1.1431    0.0000 C   0  0  0  0  0  0  0  0  0  0  0  0
    4.5981    0.6431    0.0000 C   0  0  0  0  0  0  0  0  0  0  0  0
    7.9673   -2.8048    0.0000 C   0  0  0  0  0  0  0  0  0  0  0  0
    8.0622    2.6431    0.0000 C   0  0  0  0  0  0  0  0  0  0  0  0
    6.3301    2.6431    0.0000 C   0  0  0  0  0  0  0  0  0  0  0  0
    3.7320    1.1431    0.0000 C   0  0  0  0  0  0  0  0  0  0  0  0
    8.0622    3.6431    0.0000 C   0  0  0  0  0  0  0  0  0  0  0  0
    6.3301    3.6431    0.0000 C   0  0  0  0  0  0  0  0  0  0  0  0
    2.8660    0.6431    0.0000 C   0  0  0  0  0  0  0  0  0  0  0  0
    2.0000    1.1431    0.0000 C   0  0  0  0  0  0  0  0  0  0  0  0
    9.6615   -3.1649    0.0000 C   0  0  0  0  0  0  0  0  0  0  0  0
   10.6126   -2.8559    0.0000 C   0  0  0  0  0  0  0  0  0  0  0  0
   12.3068   -3.2160    0.0000 C   0  0  0  0  0  0  0  0  0  0  0  0
   13.0499   -3.8852    0.0000 C   0  0  0  0  0  0  0  0  0  0  0  0
    6.0165   -1.5754    0.0000 H   0  0  0  0  0  0  0  0  0  0  0  0
    4.3451   -1.9078    0.0000 H   0  0  0  0  0  0  0  0  0  0  0  0
    4.0887   -2.6969    0.0000 H   0  0  0  0  0  0  0  0  0  0  0  0
    4.3576   -3.5247    0.0000 H   0  0  0  0  0  0  0  0  0  0  0  0
    5.0289   -4.0124    0.0000 H   0  0  0  0  0  0  0  0  0  0  0  0
    5.8993   -4.0124    0.0000 H   0  0  0  0  0  0  0  0  0  0  0  0
    6.5706   -3.5247    0.0000 H   0  0  0  0  0  0  0  0  0  0  0  0
    6.8671    0.3331    0.0000 H   0  0  0  0  0  0  0  0  0  0  0  0
    6.8671   -0.6669    0.0000 H   0  0  0  0  0  0  0  0  0  0  0  0
    5.8626    1.6180    0.0000 H   0  0  0  0  0  0  0  0  0  0  0  0
    5.0656    1.6180    0.0000 H   0  0  0  0  0  0  0  0  0  0  0  0
    4.1996    0.1681    0.0000 H   0  0  0  0  0  0  0  0  0  0  0  0
    4.9966    0.1681    0.0000 H   0  0  0  0  0  0  0  0  0  0  0  0
    7.4788   -3.1865    0.0000 H   0  0  0  0  0  0  0  0  0  0  0  0
    8.2584   -3.3522    0.0000 H   0  0  0  0  0  0  0  0  0  0  0  0
    8.2742    2.0605    0.0000 H   0  0  0  0  0  0  0  0  0  0  0  0
    8.6728    2.7507    0.0000 H   0  0  0  0  0  0  0  0  0  0  0  0
    5.7196    2.7507    0.0000 H   0  0  0  0  0  0  0  0  0  0  0  0
    6.1181    2.0605    0.0000 H   0  0  0  0  0  0  0  0  0  0  0  0
    4.1306    1.6180    0.0000 H   0  0  0  0  0  0  0  0  0  0  0  0
    3.3335    1.6180    0.0000 H   0  0  0  0  0  0  0  0  0  0  0  0
    8.6728    3.5354    0.0000 H   0  0  0  0  0  0  0  0  0  0  0  0
    8.2742    4.2257    0.0000 H   0  0  0  0  0  0  0  0  0  0  0  0
    6.1181    4.2257    0.0000 H   0  0  0  0  0  0  0  0  0  0  0  0
    5.7196    3.5354    0.0000 H   0  0  0  0  0  0  0  0  0  0  0  0
    2.4675    0.1681    0.0000 H   0  0  0  0  0  0  0  0  0  0  0  0
    3.2646    0.1681    0.0000 H   0  0  0  0  0  0  0  0  0  0  0  0
    9.0473   -1.8894    0.0000 H   0  0  0  0  0  0  0  0  0  0  0  0
    2.3100    1.6800    0.0000 H   0  0  0  0  0  0  0  0  0  0  0  0
    1.4631    1.4531    0.0000 H   0  0  0  0  0  0  0  0  0  0  0  0
    1.6900    0.6061    0.0000 H   0  0  0  0  0  0  0  0  0  0  0  0
   11.1011   -2.4742    0.0000 H   0  0  0  0  0  0  0  0  0  0  0  0
   10.3215   -2.3085    0.0000 H   0  0  0  0  0  0  0  0  0  0  0  0
   11.2268   -4.1315    0.0000 H   0  0  0  0  0  0  0  0  0  0  0  0
   12.6351   -4.3459    0.0000 H   0  0  0  0  0  0  0  0  0  0  0  0
   13.5107   -4.3000    0.0000 H   0  0  0  0  0  0  0  0  0  0  0  0
   13.4648   -3.4244    0.0000 H   0  0  0  0  0  0  0  0  0  0  0  0
  1 16  2  0  0  0  0
  2 26  1  0  0  0  0
  2 27  1  0  0  0  0
  3 19  2  0  0  0  0
  4 20  2  0  0  0  0
  5 30  2  0  0  0  0
  6 32  2  0  0  0  0
  7 12  1  0  0  0  0
  7 15  1  0  0  0  0
  7 19  1  0  0  0  0
  8 16  1  0  0  0  0
  8 17  1  0  0  0  0
  8 42  1  0  0  0  0
  9 20  1  0  0  0  0
  9 23  1  0  0  0  0
  9 24  1  0  0  0  0
 10 22  1  0  0  0  0
 10 30  1  0  0  0  0
 10 61  1  0  0  0  0
 11 31  1  0  0  0  0
 11 32  1  0  0  0  0
 11 67  1  0  0  0  0
 12 13  1  0  0  0  0
 12 16  1  0  0  0  0
 12 34  1  0  0  0  0
 13 14  1  0  0  0  0
 13 35  1  0  0  0  0
 13 36  1  0  0  0  0
 14 15  1  0  0  0  0
 14 37  1  0  0  0  0
 14 38  1  0  0  0  0
 15 39  1  0  0  0  0
 15 40  1  0  0  0  0
 17 18  1  0  0  0  0
 17 20  1  0  0  0  0
 17 41  1  0  0  0  0
 18 21  1  0  0  0  0
 18 43  1  0  0  0  0
 18 44  1  0  0  0  0
 19 22  1  0  0  0  0
 21 25  1  0  0  0  0
 21 45  1  0  0  0  0
 21 46  1  0  0  0  0
 22 47  1  0  0  0  0
 22 48  1  0  0  0  0
 23 26  1  0  0  0  0
 23 49  1  0  0  0  0
 23 50  1  0  0  0  0
 24 27  1  0  0  0  0
 24 51  1  0  0  0  0
 24 52  1  0  0  0  0
 25 28  1  0  0  0  0
 25 53  1  0  0  0  0
 25 54  1  0  0  0  0
 26 55  1  0  0  0  0
 26 56  1  0  0  0  0
 27 57  1  0  0  0  0
 27 58  1  0  0  0  0
 28 29  1  0  0  0  0
 28 59  1  0  0  0  0
 28 60  1  0  0  0  0
 29 62  1  0  0  0  0
 29 63  1  0  0  0  0
 29 64  1  0  0  0  0
 30 31  1  0  0  0  0
 31 65  1  0  0  0  0
 31 66  1  0  0  0  0
 32 33  1  0  0  0  0
 33 68  1  0  0  0  0
 33 69  1  0  0  0  0
 33 70  1  0  0  0  0
M  END
> <PUBCHEM_COMPOUND_CID>
134528907

> <PUBCHEM_COMPOUND_CANONICALIZED>
1

> <PUBCHEM_CACTVS_COMPLEXITY>
709

> <PUBCHEM_CACTVS_HBOND_ACCEPTOR>
6

> <PUBCHEM_CACTVS_HBOND_DONOR>
3

> <PUBCHEM_CACTVS_ROTATABLE_BOND>
11

> <PUBCHEM_CACTVS_SUBSKEYS>
AAADcfB7uAAAAAAAAAAAAAAAAAAAAWAAAAAsAAAAAAAAAAAAAAAAHgAQAAAACCjhgAYCAAPABAAIAAEQEAAAAAAAAAAAAIGIAAACQBIAgCAXAAAAFgCQAAEYiQCAAAAAAAAAAAAAAAAAAAAAAAAAAAAAAA==

> <PUBCHEM_IUPAC_OPENEYE_NAME>
1-[2-[(2-acetamidoacetyl)amino]acetyl]-N-[1-(morpholine-4-carbonyl)hexyl]pyrrolidine-2-carboxamide

> <PUBCHEM_IUPAC_CAS_NAME>
1-[2-[(2-acetamido-1-oxoethyl)amino]-1-oxoethyl]-N-[1-(4-morpholinyl)-1-oxoheptan-2-yl]-2-pyrrolidinecarboxamide

> <PUBCHEM_IUPAC_NAME_MARKUP>
1-[2-[(2-acetamidoacetyl)amino]acetyl]-<I>N</I>-(1-morpholin-4-yl-1-oxoheptan-2-yl)pyrrolidine-2-carboxamide

> <PUBCHEM_IUPAC_NAME>
1-[2-[(2-acetamidoacetyl)amino]acetyl]-N-(1-morpholin-4-yl-1-oxoheptan-2-yl)pyrrolidine-2-carboxamide

> <PUBCHEM_IUPAC_SYSTEMATIC_NAME>
1-[2-(2-acetamidoethanoylamino)ethanoyl]-N-(1-morpholin-4-yl-1-oxidanylidene-heptan-2-yl)pyrrolidine-2-carboxamide

> <PUBCHEM_IUPAC_TRADITIONAL_NAME>
1-[2-[(2-acetamidoacetyl)amino]acetyl]-N-[1-(morpholine-4-carbonyl)hexyl]pyrrolidine-2-carboxamide

> <PUBCHEM_IUPAC_INCHI>
InChI=1S/C22H37N5O6/c1-3-4-5-7-17(22(32)26-10-12-33-13-11-26)25-21(31)18-8-6-9-27(18)20(30)15-24-19(29)14-23-16(2)28/h17-18H,3-15H2,1-2H3,(H,23,28)(H,24,29)(H,25,31)

> <PUBCHEM_IUPAC_INCHIKEY>
CWSZLJDXWYCLFF-UHFFFAOYSA-N

> <PUBCHEM_XLOGP3_AA>
-0.2

> <PUBCHEM_EXACT_MASS>
467.27438392

> <PUBCHEM_MOLECULAR_FORMULA>
C22H37N5O6

> <PUBCHEM_MOLECULAR_WEIGHT>
467.6

> <PUBCHEM_OPENEYE_CAN_SMILES>
CCCCCC(C(=O)N1CCOCC1)NC(=O)C2CCCN2C(=O)CNC(=O)CNC(=O)C

> <PUBCHEM_OPENEYE_ISO_SMILES>
CCCCCC(C(=O)N1CCOCC1)NC(=O)C2CCCN2C(=O)CNC(=O)CNC(=O)C

> <PUBCHEM_CACTVS_TPSA>
137

> <PUBCHEM_MONOISOTOPIC_WEIGHT>
467.27438392

> <PUBCHEM_TOTAL_CHARGE>
0

> <PUBCHEM_HEAVY_ATOM_COUNT>
33

> <PUBCHEM_ATOM_DEF_STEREO_COUNT>
0

> <PUBCHEM_ATOM_UDEF_STEREO_COUNT>
2

> <PUBCHEM_BOND_DEF_STEREO_COUNT>
0

> <PUBCHEM_BOND_UDEF_STEREO_COUNT>
0

> <PUBCHEM_ISOTOPIC_ATOM_COUNT>
0

> <PUBCHEM_COMPONENT_COUNT>
1

> <PUBCHEM_CACTVS_TAUTO_COUNT>
-1

> <PUBCHEM_COORDINATE_TYPE>
1
5
255

> <PUBCHEM_BONDANNOTATIONS>
12  16  3
17  18  3

$$$$
