 
  -OEChem-10192104252D

 23 23  0     1  0  0  0  0  0999 V2000
    7.0064    1.1212    0.0000 P   0  0  0  0  0  0  0  0  0  0  0  0
    7.7496    1.7903    0.0000 O   0  0  0  0  0  0  0  0  0  0  0  0
    7.6756    0.3781    0.0000 O   0  0  0  0  0  0  0  0  0  0  0  0
    6.3373    1.8643    0.0000 O   0  0  0  0  0  0  0  0  0  0  0  0
    2.8090   -0.1868    0.0000 N   0  0  0  0  0  0  0  0  0  0  0  0
    3.3090    1.3520    0.0000 N   0  0  0  0  0  0  0  0  0  0  0  0
    2.0000    0.4010    0.0000 N   0  0  0  0  0  0  0  0  0  0  0  0
    4.9849   -1.8643    0.0000 N   0  0  0  0  0  0  0  0  0  0  0  0
    5.3122    0.7611    0.0000 C   0  0  0  0  0  0  0  0  0  0  0  0
    4.5691    0.0920    0.0000 C   0  0  3  0  0  0  0  0  0  0  0  0
    6.2633    0.4521    0.0000 C   0  0  0  0  0  0  0  0  0  0  0  0
    3.6180    0.4010    0.0000 C   0  0  0  0  0  0  0  0  0  0  0  0
    4.7770   -0.8862    0.0000 C   0  0  0  0  0  0  0  0  0  0  0  0
    2.3090    1.3520    0.0000 C   0  0  0  0  0  0  0  0  0  0  0  0
    5.6033    1.3085    0.0000 H   0  0  0  0  0  0  0  0  0  0  0  0
    4.8237    1.1428    0.0000 H   0  0  0  0  0  0  0  0  0  0  0  0
    4.1083   -0.3229    0.0000 H   0  0  0  0  0  0  0  0  0  0  0  0
    5.9722   -0.0954    0.0000 H   0  0  0  0  0  0  0  0  0  0  0  0
    6.7519    0.0704    0.0000 H   0  0  0  0  0  0  0  0  0  0  0  0
    2.8090   -0.8068    0.0000 H   0  0  0  0  0  0  0  0  0  0  0  0
    8.3392    1.5987    0.0000 H   0  0  0  0  0  0  0  0  0  0  0  0
    7.4840   -0.2116    0.0000 H   0  0  0  0  0  0  0  0  0  0  0  0
    1.9446    1.8536    0.0000 H   0  0  0  0  0  0  0  0  0  0  0  0
  1  2  1  0  0  0  0
  1  3  1  0  0  0  0
  1  4  2  0  0  0  0
  1 11  1  0  0  0  0
  2 21  1  0  0  0  0
  3 22  1  0  0  0  0
  5  7  1  0  0  0  0
  5 12  1  0  0  0  0
  5 20  1  0  0  0  0
  6 12  2  0  0  0  0
  6 14  1  0  0  0  0
  7 14  2  0  0  0  0
  8 13  3  0  0  0  0
  9 10  1  0  0  0  0
  9 11  1  0  0  0  0
  9 15  1  0  0  0  0
  9 16  1  0  0  0  0
 10 12  1  0  0  0  0
 10 13  1  0  0  0  0
 10 17  1  0  0  0  0
 11 18  1  0  0  0  0
 11 19  1  0  0  0  0
 14 23  1  0  0  0  0
M  END
> <PUBCHEM_COMPOUND_CID>
53818793

> <PUBCHEM_COMPOUND_CANONICALIZED>
1

> <PUBCHEM_CACTVS_COMPLEXITY>
282

> <PUBCHEM_CACTVS_HBOND_ACCEPTOR>
6

> <PUBCHEM_CACTVS_HBOND_DONOR>
3

> <PUBCHEM_CACTVS_ROTATABLE_BOND>
4

> <PUBCHEM_CACTVS_SUBSKEYS>
AAADccBjsAIAAAAAAAAAAAAAAAAAAWAAAAAAAAAAAAAAAAABgAAAHAgYCCAADQCJAwQFEAZrEBAyRAIhJIAQgAuQgKAVYAA4AACAiAAAiAAEAAAAGAIAAAgAAAAIAAAAAAAAAAAAAAAAAAAAAAAAAAAAAA==

> <PUBCHEM_IUPAC_OPENEYE_NAME>
[3-cyano-3-(1H-1,2,4-triazol-5-yl)propyl]phosphonic acid

> <PUBCHEM_IUPAC_CAS_NAME>
[3-cyano-3-(1H-1,2,4-triazol-5-yl)propyl]phosphonic acid

> <PUBCHEM_IUPAC_NAME_MARKUP>
[3-cyano-3-(1<I>H</I>-1,2,4-triazol-5-yl)propyl]phosphonic acid

> <PUBCHEM_IUPAC_NAME>
[3-cyano-3-(1H-1,2,4-triazol-5-yl)propyl]phosphonic acid

> <PUBCHEM_IUPAC_SYSTEMATIC_NAME>
[3-cyano-3-(1H-1,2,4-triazol-5-yl)propyl]phosphonic acid

> <PUBCHEM_IUPAC_TRADITIONAL_NAME>
[3-cyano-3-(1H-1,2,4-triazol-5-yl)propyl]phosphonic acid

> <PUBCHEM_IUPAC_INCHI>
InChI=1S/C6H9N4O3P/c7-3-5(1-2-14(11,12)13)6-8-4-9-10-6/h4-5H,1-2H2,(H,8,9,10)(H2,11,12,13)

> <PUBCHEM_IUPAC_INCHIKEY>
FUGVJOICTJNJAY-UHFFFAOYSA-N

> <PUBCHEM_XLOGP3_AA>
-1.8

> <PUBCHEM_EXACT_MASS>
216.04122716

> <PUBCHEM_MOLECULAR_FORMULA>
C6H9N4O3P

> <PUBCHEM_MOLECULAR_WEIGHT>
216.13

> <PUBCHEM_OPENEYE_CAN_SMILES>
C1=NNC(=N1)C(CCP(=O)(O)O)C#N

> <PUBCHEM_OPENEYE_ISO_SMILES>
C1=NNC(=N1)C(CCP(=O)(O)O)C#N

> <PUBCHEM_CACTVS_TPSA>
123

> <PUBCHEM_MONOISOTOPIC_WEIGHT>
216.04122716

> <PUBCHEM_TOTAL_CHARGE>
0

> <PUBCHEM_HEAVY_ATOM_COUNT>
14

> <PUBCHEM_ATOM_DEF_STEREO_COUNT>
0

> <PUBCHEM_ATOM_UDEF_STEREO_COUNT>
1

> <PUBCHEM_BOND_DEF_STEREO_COUNT>
0

> <PUBCHEM_BOND_UDEF_STEREO_COUNT>
0

> <PUBCHEM_ISOTOPIC_ATOM_COUNT>
0

> <PUBCHEM_COMPONENT_COUNT>
1

> <PUBCHEM_CACTVS_TAUTO_COUNT>
-1

> <PUBCHEM_COORDINATE_TYPE>
1
5
255

> <PUBCHEM_BONDANNOTATIONS>
5  12  8
5  7  8
6  12  8
6  14  8
7  14  8
10  9  3

$$$$
