 
  -OEChem-10192103342D

 29 28  0     0  0  0  0  0  0999 V2000
    8.0622   -0.7990    0.0000 S   0  0  0  0  0  0  0  0  0  0  0  0
    4.5981   -0.7990    0.0000 P   0  0  0  0  0  0  0  0  0  0  0  0
    3.7320   -1.2990    0.0000 O   0  0  0  0  0  0  0  0  0  0  0  0
    4.0981    0.0670    0.0000 O   0  0  0  0  0  0  0  0  0  0  0  0
    5.4641   -0.2990    0.0000 O   0  0  0  0  0  0  0  0  0  0  0  0
    5.0981   -1.6651    0.0000 O   0  0  0  0  0  0  0  0  0  0  0  0
    9.7942    0.2010    0.0000 N   0  0  0  0  0  0  0  0  0  0  0  0
    2.8660   -0.7990    0.0000 C   0  0  0  0  0  0  0  0  0  0  0  0
    4.5981    0.9330    0.0000 C   0  0  0  0  0  0  0  0  0  0  0  0
    6.3301   -0.7990    0.0000 C   0  0  0  0  0  0  0  0  0  0  0  0
    2.0000   -1.2990    0.0000 C   0  0  0  0  0  0  0  0  0  0  0  0
    4.0981    1.7990    0.0000 C   0  0  0  0  0  0  0  0  0  0  0  0
    6.3301   -1.7990    0.0000 C   0  0  0  0  0  0  0  0  0  0  0  0
    7.1962   -0.2990    0.0000 C   0  0  0  0  0  0  0  0  0  0  0  0
    8.9282   -0.2990    0.0000 C   0  0  0  0  0  0  0  0  0  0  0  0
    3.2646   -0.3241    0.0000 H   0  0  0  0  0  0  0  0  0  0  0  0
    2.4675   -0.3241    0.0000 H   0  0  0  0  0  0  0  0  0  0  0  0
    5.0730    0.5345    0.0000 H   0  0  0  0  0  0  0  0  0  0  0  0
    5.0730    1.3315    0.0000 H   0  0  0  0  0  0  0  0  0  0  0  0
    1.6900   -0.7621    0.0000 H   0  0  0  0  0  0  0  0  0  0  0  0
    1.4631   -1.6090    0.0000 H   0  0  0  0  0  0  0  0  0  0  0  0
    2.3100   -1.8360    0.0000 H   0  0  0  0  0  0  0  0  0  0  0  0
    4.6350    2.1090    0.0000 H   0  0  0  0  0  0  0  0  0  0  0  0
    3.7881    2.3360    0.0000 H   0  0  0  0  0  0  0  0  0  0  0  0
    3.5611    1.4890    0.0000 H   0  0  0  0  0  0  0  0  0  0  0  0
    5.7101   -1.7990    0.0000 H   0  0  0  0  0  0  0  0  0  0  0  0
    6.3301   -2.4190    0.0000 H   0  0  0  0  0  0  0  0  0  0  0  0
    6.9501   -1.7990    0.0000 H   0  0  0  0  0  0  0  0  0  0  0  0
    7.1962    0.3210    0.0000 H   0  0  0  0  0  0  0  0  0  0  0  0
  1 14  1  0  0  0  0
  1 15  1  0  0  0  0
  2  3  1  0  0  0  0
  2  4  1  0  0  0  0
  2  5  1  0  0  0  0
  2  6  2  0  0  0  0
  3  8  1  0  0  0  0
  4  9  1  0  0  0  0
  5 10  1  0  0  0  0
  7 15  3  0  0  0  0
  8 11  1  0  0  0  0
  8 16  1  0  0  0  0
  8 17  1  0  0  0  0
  9 12  1  0  0  0  0
  9 18  1  0  0  0  0
  9 19  1  0  0  0  0
 10 13  1  0  0  0  0
 10 14  2  0  0  0  0
 11 20  1  0  0  0  0
 11 21  1  0  0  0  0
 11 22  1  0  0  0  0
 12 23  1  0  0  0  0
 12 24  1  0  0  0  0
 12 25  1  0  0  0  0
 13 26  1  0  0  0  0
 13 27  1  0  0  0  0
 13 28  1  0  0  0  0
 14 29  1  0  0  0  0
M  END
> <PUBCHEM_COMPOUND_CID>
12499361

> <PUBCHEM_COMPOUND_CANONICALIZED>
1

> <PUBCHEM_CACTVS_COMPLEXITY>
299

> <PUBCHEM_CACTVS_HBOND_ACCEPTOR>
6

> <PUBCHEM_CACTVS_HBOND_DONOR>
0

> <PUBCHEM_CACTVS_ROTATABLE_BOND>
7

> <PUBCHEM_CACTVS_SUBSKEYS>
AAADccByOAJAAAAAAAAAAAAAAAAAAAAAAAAAAAAAAAAAAAAAAAAAHgQAACAACASkwAKCAAAAARiQQABCAIAAAAAAAAAAAAAAAAAAAAAAAQAAAAAAAAAAAAAAAAAAAAAAAAAAAAAAAAAAAAAAAAAAAAAAAA==

> <PUBCHEM_IUPAC_OPENEYE_NAME>
[(E)-2-diethoxyphosphoryloxyprop-1-enyl] thiocyanate

> <PUBCHEM_IUPAC_CAS_NAME>
thiocyanic acid [(E)-2-diethoxyphosphoryloxyprop-1-enyl] ester

> <PUBCHEM_IUPAC_NAME_MARKUP>
[(<I>E</I>)-2-diethoxyphosphoryloxyprop-1-enyl] thiocyanate

> <PUBCHEM_IUPAC_NAME>
[(E)-2-diethoxyphosphoryloxyprop-1-enyl] thiocyanate

> <PUBCHEM_IUPAC_SYSTEMATIC_NAME>
[(E)-2-diethoxyphosphoryloxyprop-1-enyl] thiocyanate

> <PUBCHEM_IUPAC_TRADITIONAL_NAME>
thiocyanic acid [(E)-2-diethoxyphosphoryloxyprop-1-enyl] ester

> <PUBCHEM_IUPAC_INCHI>
InChI=1S/C8H14NO4PS/c1-4-11-14(10,12-5-2)13-8(3)6-15-7-9/h6H,4-5H2,1-3H3/b8-6+

> <PUBCHEM_IUPAC_INCHIKEY>
XIXYMULQPVKOPK-SOFGYWHQSA-N

> <PUBCHEM_XLOGP3_AA>
1.6

> <PUBCHEM_EXACT_MASS>
251.03811610

> <PUBCHEM_MOLECULAR_FORMULA>
C8H14NO4PS

> <PUBCHEM_MOLECULAR_WEIGHT>
251.24

> <PUBCHEM_OPENEYE_CAN_SMILES>
CCOP(=O)(OCC)OC(=CSC#N)C

> <PUBCHEM_OPENEYE_ISO_SMILES>
CCOP(=O)(OCC)O/C(=C/SC#N)/C

> <PUBCHEM_CACTVS_TPSA>
93.8

> <PUBCHEM_MONOISOTOPIC_WEIGHT>
251.03811610

> <PUBCHEM_TOTAL_CHARGE>
0

> <PUBCHEM_HEAVY_ATOM_COUNT>
15

> <PUBCHEM_ATOM_DEF_STEREO_COUNT>
0

> <PUBCHEM_ATOM_UDEF_STEREO_COUNT>
0

> <PUBCHEM_BOND_DEF_STEREO_COUNT>
1

> <PUBCHEM_BOND_UDEF_STEREO_COUNT>
0

> <PUBCHEM_ISOTOPIC_ATOM_COUNT>
0

> <PUBCHEM_COMPONENT_COUNT>
1

> <PUBCHEM_CACTVS_TAUTO_COUNT>
-1

> <PUBCHEM_COORDINATE_TYPE>
1
5
255

$$$$
