 
  -OEChem-10192103542D

 68 68  0     1  0  0  0  0  0999 V2000
    8.5991    2.1900    0.0000 O   0  0  0  0  0  0  0  0  0  0  0  0
    6.0010   -1.3100    0.0000 O   0  0  0  0  0  0  0  0  0  0  0  0
    5.1350    2.1900    0.0000 O   0  0  0  0  0  0  0  0  0  0  0  0
    6.0010   -2.3100    0.0000 O   0  0  0  0  0  0  0  0  0  0  0  0
    8.5991    3.1900    0.0000 O   0  0  0  0  0  0  0  0  0  0  0  0
    5.1350   -3.8100    0.0000 O   0  0  0  0  0  0  0  0  0  0  0  0
    6.0010    0.6900    0.0000 N   0  0  0  0  0  0  0  0  0  0  0  0
    4.2690   -1.3100    0.0000 N   0  0  0  0  0  0  0  0  0  0  0  0
    6.8671    3.1900    0.0000 N   0  0  0  0  0  0  0  0  0  0  0  0
    2.5369    3.6900    0.0000 N   0  0  0  0  0  0  0  0  0  0  0  0
    8.5991    5.1900    0.0000 N   0  0  0  0  0  0  0  0  0  0  0  0
    5.1350    0.1900    0.0000 C   0  0  3  0  0  0  0  0  0  0  0  0
    4.2690    0.6900    0.0000 C   0  0  0  0  0  0  0  0  0  0  0  0
    4.2690    1.6900    0.0000 C   0  0  0  0  0  0  0  0  0  0  0  0
    6.8671    2.1900    0.0000 C   0  0  3  0  0  0  0  0  0  0  0  0
    3.4030    2.1900    0.0000 C   0  0  0  0  0  0  0  0  0  0  0  0
    5.1350   -0.8100    0.0000 C   0  0  0  0  0  0  0  0  0  0  0  0
    6.0010    1.6900    0.0000 C   0  0  0  0  0  0  0  0  0  0  0  0
    7.7331    1.6900    0.0000 C   0  0  3  0  0  0  0  0  0  0  0  0
    4.2690   -2.3100    0.0000 C   0  0  3  0  0  0  0  0  0  0  0  0
    3.4030    3.1900    0.0000 C   0  0  0  0  0  0  0  0  0  0  0  0
    3.4030   -2.8100    0.0000 C   0  0  0  0  0  0  0  0  0  0  0  0
    7.7331    0.6900    0.0000 C   0  0  0  0  0  0  0  0  0  0  0  0
    3.4030   -3.8100    0.0000 C   0  0  0  0  0  0  0  0  0  0  0  0
    7.7331    3.6900    0.0000 C   0  0  0  0  0  0  0  0  0  0  0  0
    5.1350   -2.8100    0.0000 C   0  0  0  0  0  0  0  0  0  0  0  0
    7.7331    4.6900    0.0000 C   0  0  3  0  0  0  0  0  0  0  0  0
    4.2690   -4.3100    0.0000 C   0  0  0  0  0  0  0  0  0  0  0  0
    2.5369   -4.3100    0.0000 C   0  0  0  0  0  0  0  0  0  0  0  0
    6.8671    5.1900    0.0000 C   0  0  0  0  0  0  0  0  0  0  0  0
    4.2690   -5.3100    0.0000 C   0  0  0  0  0  0  0  0  0  0  0  0
    2.5369   -5.3100    0.0000 C   0  0  0  0  0  0  0  0  0  0  0  0
    3.4030   -5.8100    0.0000 C   0  0  0  0  0  0  0  0  0  0  0  0
    5.1350    0.8100    0.0000 H   0  0  0  0  0  0  0  0  0  0  0  0
    3.6584    0.7977    0.0000 H   0  0  0  0  0  0  0  0  0  0  0  0
    4.0569    0.1074    0.0000 H   0  0  0  0  0  0  0  0  0  0  0  0
    4.8796    1.5823    0.0000 H   0  0  0  0  0  0  0  0  0  0  0  0
    4.4810    2.2726    0.0000 H   0  0  0  0  0  0  0  0  0  0  0  0
    6.3301    2.5000    0.0000 H   0  0  0  0  0  0  0  0  0  0  0  0
    6.5380    0.3800    0.0000 H   0  0  0  0  0  0  0  0  0  0  0  0
    2.7924    2.2977    0.0000 H   0  0  0  0  0  0  0  0  0  0  0  0
    3.1909    1.6074    0.0000 H   0  0  0  0  0  0  0  0  0  0  0  0
    7.7331    2.3100    0.0000 H   0  0  0  0  0  0  0  0  0  0  0  0
    4.8059   -2.0000    0.0000 H   0  0  0  0  0  0  0  0  0  0  0  0
    3.7320   -1.0000    0.0000 H   0  0  0  0  0  0  0  0  0  0  0  0
    4.0135    3.0823    0.0000 H   0  0  0  0  0  0  0  0  0  0  0  0
    3.6150    3.7726    0.0000 H   0  0  0  0  0  0  0  0  0  0  0  0
    3.1909   -2.2274    0.0000 H   0  0  0  0  0  0  0  0  0  0  0  0
    2.7924   -2.9177    0.0000 H   0  0  0  0  0  0  0  0  0  0  0  0
    6.3301    3.5000    0.0000 H   0  0  0  0  0  0  0  0  0  0  0  0
    7.1131    0.6900    0.0000 H   0  0  0  0  0  0  0  0  0  0  0  0
    7.7331    0.0700    0.0000 H   0  0  0  0  0  0  0  0  0  0  0  0
    8.3531    0.6900    0.0000 H   0  0  0  0  0  0  0  0  0  0  0  0
    7.7331    5.3100    0.0000 H   0  0  0  0  0  0  0  0  0  0  0  0
    9.1360    1.8800    0.0000 H   0  0  0  0  0  0  0  0  0  0  0  0
    2.5369    4.3100    0.0000 H   0  0  0  0  0  0  0  0  0  0  0  0
    2.0000    3.3800    0.0000 H   0  0  0  0  0  0  0  0  0  0  0  0
    4.8059   -4.0000    0.0000 H   0  0  0  0  0  0  0  0  0  0  0  0
    2.0000   -4.0000    0.0000 H   0  0  0  0  0  0  0  0  0  0  0  0
    7.1771    5.7269    0.0000 H   0  0  0  0  0  0  0  0  0  0  0  0
    6.3301    5.5000    0.0000 H   0  0  0  0  0  0  0  0  0  0  0  0
    6.5571    4.6531    0.0000 H   0  0  0  0  0  0  0  0  0  0  0  0
    8.5991    5.8100    0.0000 H   0  0  0  0  0  0  0  0  0  0  0  0
    9.1360    4.8800    0.0000 H   0  0  0  0  0  0  0  0  0  0  0  0
    4.8059   -5.6200    0.0000 H   0  0  0  0  0  0  0  0  0  0  0  0
    2.0000   -5.6200    0.0000 H   0  0  0  0  0  0  0  0  0  0  0  0
    6.5380   -2.6200    0.0000 H   0  0  0  0  0  0  0  0  0  0  0  0
    3.4030   -6.4300    0.0000 H   0  0  0  0  0  0  0  0  0  0  0  0
  1 19  1  0  0  0  0
  1 55  1  0  0  0  0
  2 17  2  0  0  0  0
  3 18  2  0  0  0  0
  4 26  1  0  0  0  0
  4 67  1  0  0  0  0
  5 25  2  0  0  0  0
  6 26  2  0  0  0  0
  7 12  1  0  0  0  0
  7 18  1  0  0  0  0
  7 40  1  0  0  0  0
  8 17  1  0  0  0  0
  8 20  1  0  0  0  0
  8 45  1  0  0  0  0
  9 15  1  0  0  0  0
  9 25  1  0  0  0  0
  9 50  1  0  0  0  0
 10 21  1  0  0  0  0
 10 56  1  0  0  0  0
 10 57  1  0  0  0  0
 11 27  1  0  0  0  0
 11 63  1  0  0  0  0
 11 64  1  0  0  0  0
 12 13  1  0  0  0  0
 12 17  1  0  0  0  0
 12 34  1  0  0  0  0
 13 14  1  0  0  0  0
 13 35  1  0  0  0  0
 13 36  1  0  0  0  0
 14 16  1  0  0  0  0
 14 37  1  0  0  0  0
 14 38  1  0  0  0  0
 15 18  1  0  0  0  0
 15 19  1  0  0  0  0
 15 39  1  0  0  0  0
 16 21  1  0  0  0  0
 16 41  1  0  0  0  0
 16 42  1  0  0  0  0
 19 23  1  0  0  0  0
 19 43  1  0  0  0  0
 20 22  1  0  0  0  0
 20 26  1  0  0  0  0
 20 44  1  0  0  0  0
 21 46  1  0  0  0  0
 21 47  1  0  0  0  0
 22 24  1  0  0  0  0
 22 48  1  0  0  0  0
 22 49  1  0  0  0  0
 23 51  1  0  0  0  0
 23 52  1  0  0  0  0
 23 53  1  0  0  0  0
 24 28  2  0  0  0  0
 24 29  1  0  0  0  0
 25 27  1  0  0  0  0
 27 30  1  0  0  0  0
 27 54  1  0  0  0  0
 28 31  1  0  0  0  0
 28 58  1  0  0  0  0
 29 32  2  0  0  0  0
 29 59  1  0  0  0  0
 30 60  1  0  0  0  0
 30 61  1  0  0  0  0
 30 62  1  0  0  0  0
 31 33  2  0  0  0  0
 31 65  1  0  0  0  0
 32 33  1  0  0  0  0
 32 66  1  0  0  0  0
 33 68  1  0  0  0  0
M  END
> <PUBCHEM_COMPOUND_CID>
18239162

> <PUBCHEM_COMPOUND_CANONICALIZED>
1

> <PUBCHEM_CACTVS_COMPLEXITY>
655

> <PUBCHEM_CACTVS_HBOND_ACCEPTOR>
8

> <PUBCHEM_CACTVS_HBOND_DONOR>
7

> <PUBCHEM_CACTVS_ROTATABLE_BOND>
14

> <PUBCHEM_CACTVS_SUBSKEYS>
AAADcfB7uAAAAAAAAAAAAAAAAAAAAAAAAAAwAAAAAAAAAAABAAAAHgAQCAAADDzhmAYyCILAAgCIAiHSGAACAAAgAAAIiIGIAIgKcDaAkTGUYAAmtgCYiAeYyKCOAAAAAAAAAAAAAAAAAAAAAAAAAAAAAA==

> <PUBCHEM_IUPAC_OPENEYE_NAME>
2-[[6-amino-2-[[2-(2-aminopropanoylamino)-3-hydroxy-butanoyl]amino]hexanoyl]amino]-3-phenyl-propanoic acid

> <PUBCHEM_IUPAC_CAS_NAME>
2-[[6-amino-2-[[2-[(2-amino-1-oxopropyl)amino]-3-hydroxy-1-oxobutyl]amino]-1-oxohexyl]amino]-3-phenylpropanoic acid

> <PUBCHEM_IUPAC_NAME_MARKUP>
2-[[6-amino-2-[[2-(2-aminopropanoylamino)-3-hydroxybutanoyl]amino]hexanoyl]amino]-3-phenylpropanoic acid

> <PUBCHEM_IUPAC_NAME>
2-[[6-amino-2-[[2-(2-aminopropanoylamino)-3-hydroxybutanoyl]amino]hexanoyl]amino]-3-phenylpropanoic acid

> <PUBCHEM_IUPAC_SYSTEMATIC_NAME>
2-[[6-azanyl-2-[[2-(2-azanylpropanoylamino)-3-oxidanyl-butanoyl]amino]hexanoyl]amino]-3-phenyl-propanoic acid

> <PUBCHEM_IUPAC_TRADITIONAL_NAME>
2-[[2-[[2-(alanylamino)-3-hydroxy-butanoyl]amino]-6-amino-hexanoyl]amino]-3-phenyl-propionic acid

> <PUBCHEM_IUPAC_INCHI>
InChI=1S/C22H35N5O6/c1-13(24)19(29)27-18(14(2)28)21(31)25-16(10-6-7-11-23)20(30)26-17(22(32)33)12-15-8-4-3-5-9-15/h3-5,8-9,13-14,16-18,28H,6-7,10-12,23-24H2,1-2H3,(H,25,31)(H,26,30)(H,27,29)(H,32,33)

> <PUBCHEM_IUPAC_INCHIKEY>
MOSZGRNWTJOUJU-UHFFFAOYSA-N

> <PUBCHEM_XLOGP3>
-3.8

> <PUBCHEM_EXACT_MASS>
465.25873385

> <PUBCHEM_MOLECULAR_FORMULA>
C22H35N5O6

> <PUBCHEM_MOLECULAR_WEIGHT>
465.5

> <PUBCHEM_OPENEYE_CAN_SMILES>
CC(C(C(=O)NC(CCCCN)C(=O)NC(CC1=CC=CC=C1)C(=O)O)NC(=O)C(C)N)O

> <PUBCHEM_OPENEYE_ISO_SMILES>
CC(C(C(=O)NC(CCCCN)C(=O)NC(CC1=CC=CC=C1)C(=O)O)NC(=O)C(C)N)O

> <PUBCHEM_CACTVS_TPSA>
197

> <PUBCHEM_MONOISOTOPIC_WEIGHT>
465.25873385

> <PUBCHEM_TOTAL_CHARGE>
0

> <PUBCHEM_HEAVY_ATOM_COUNT>
33

> <PUBCHEM_ATOM_DEF_STEREO_COUNT>
0

> <PUBCHEM_ATOM_UDEF_STEREO_COUNT>
5

> <PUBCHEM_BOND_DEF_STEREO_COUNT>
0

> <PUBCHEM_BOND_UDEF_STEREO_COUNT>
0

> <PUBCHEM_ISOTOPIC_ATOM_COUNT>
0

> <PUBCHEM_COMPONENT_COUNT>
1

> <PUBCHEM_CACTVS_TAUTO_COUNT>
-1

> <PUBCHEM_COORDINATE_TYPE>
1
5
255

> <PUBCHEM_BONDANNOTATIONS>
19  1  3
27  11  3
12  13  3
15  18  3
20  22  3
24  28  8
24  29  8
28  31  8
29  32  8
31  33  8
32  33  8

$$$$
