 
  -OEChem-10192104332D

 19 20  0     0  0  0  0  0  0999 V2000
    2.8910    0.0000    0.0000 S   0  0  0  0  0  0  0  0  0  0  0  0
    5.3760    0.8047    0.0000 S   0  0  0  0  0  0  0  0  0  0  0  0
    5.3760   -0.8047    0.0000 S   0  0  0  0  0  0  0  0  0  0  0  0
    2.1916    1.9680    0.0000 O   0  0  0  0  0  0  0  0  0  0  0  0
    2.1916   -1.9680    0.0000 O   0  0  0  0  0  0  0  0  0  0  0  0
    6.9596    0.0000    0.0000 O   0  0  0  0  0  0  0  0  0  0  0  0
    4.4298    0.5000    0.0000 C   0  0  0  0  0  0  0  0  0  0  0  0
    4.4298   -0.5000    0.0000 C   0  0  0  0  0  0  0  0  0  0  0  0
    3.4788    0.8090    0.0000 C   0  0  0  0  0  0  0  0  0  0  0  0
    3.4788   -0.8090    0.0000 C   0  0  0  0  0  0  0  0  0  0  0  0
    3.1697    1.7601    0.0000 C   0  0  0  0  0  0  0  0  0  0  0  0
    3.1697   -1.7601    0.0000 C   0  0  0  0  0  0  0  0  0  0  0  0
    5.9596    0.0000    0.0000 C   0  0  0  0  0  0  0  0  0  0  0  0
    3.7837    1.8464    0.0000 H   0  0  0  0  0  0  0  0  0  0  0  0
    3.1914    2.3797    0.0000 H   0  0  0  0  0  0  0  0  0  0  0  0
    3.1914   -2.3797    0.0000 H   0  0  0  0  0  0  0  0  0  0  0  0
    3.7837   -1.8464    0.0000 H   0  0  0  0  0  0  0  0  0  0  0  0
    2.0000    2.5576    0.0000 H   0  0  0  0  0  0  0  0  0  0  0  0
    2.0000   -2.5576    0.0000 H   0  0  0  0  0  0  0  0  0  0  0  0
  1  9  1  0  0  0  0
  1 10  1  0  0  0  0
  2  7  1  0  0  0  0
  2 13  1  0  0  0  0
  3  8  1  0  0  0  0
  3 13  1  0  0  0  0
  4 11  1  0  0  0  0
  4 18  1  0  0  0  0
  5 12  1  0  0  0  0
  5 19  1  0  0  0  0
  6 13  2  0  0  0  0
  7  8  1  0  0  0  0
  7  9  2  0  0  0  0
  8 10  2  0  0  0  0
  9 11  1  0  0  0  0
 10 12  1  0  0  0  0
 11 14  1  0  0  0  0
 11 15  1  0  0  0  0
 12 16  1  0  0  0  0
 12 17  1  0  0  0  0
M  END
> <PUBCHEM_COMPOUND_CID>
101467564

> <PUBCHEM_COMPOUND_CANONICALIZED>
1

> <PUBCHEM_CACTVS_COMPLEXITY>
203

> <PUBCHEM_CACTVS_HBOND_ACCEPTOR>
6

> <PUBCHEM_CACTVS_HBOND_DONOR>
2

> <PUBCHEM_CACTVS_ROTATABLE_BOND>
2

> <PUBCHEM_CACTVS_SUBSKEYS>
AAADcYBgMABgAAAAAAAAAAAAAAAAASJAAAAAAAAAAAASAAABgAAAGgQACAAACACg0AIAAYAAAgiMAABAAAADAYAgCBAAiBAACIgINiKgEBCAUAAkwAEomAeAQAAAAAAAAAAAAAAAAAAAAAAAAAAAAAAAAA==

> <PUBCHEM_IUPAC_OPENEYE_NAME>
4,6-bis(hydroxymethyl)thieno[3,4-d][1,3]dithiol-2-one

> <PUBCHEM_IUPAC_CAS_NAME>
4,6-bis(hydroxymethyl)-2-thieno[3,4-d][1,3]dithiolone

> <PUBCHEM_IUPAC_NAME_MARKUP>
4,6-bis(hydroxymethyl)thieno[3,4-d][1,3]dithiol-2-one

> <PUBCHEM_IUPAC_NAME>
4,6-bis(hydroxymethyl)thieno[3,4-d][1,3]dithiol-2-one

> <PUBCHEM_IUPAC_SYSTEMATIC_NAME>
4,6-bis(hydroxymethyl)thieno[3,4-d][1,3]dithiol-2-one

> <PUBCHEM_IUPAC_TRADITIONAL_NAME>
4,6-dimethylolthieno[3,4-d][1,3]dithiol-2-one

> <PUBCHEM_IUPAC_INCHI>
InChI=1S/C7H6O3S3/c8-1-3-5-6(4(2-9)11-3)13-7(10)12-5/h8-9H,1-2H2

> <PUBCHEM_IUPAC_INCHIKEY>
HOEQYUISRBLUFE-UHFFFAOYSA-N

> <PUBCHEM_XLOGP3_AA>
0.8

> <PUBCHEM_EXACT_MASS>
233.94790757

> <PUBCHEM_MOLECULAR_FORMULA>
C7H6O3S3

> <PUBCHEM_MOLECULAR_WEIGHT>
234.3

> <PUBCHEM_OPENEYE_CAN_SMILES>
C(C1=C2C(=C(S1)CO)SC(=O)S2)O

> <PUBCHEM_OPENEYE_ISO_SMILES>
C(C1=C2C(=C(S1)CO)SC(=O)S2)O

> <PUBCHEM_CACTVS_TPSA>
136

> <PUBCHEM_MONOISOTOPIC_WEIGHT>
233.94790757

> <PUBCHEM_TOTAL_CHARGE>
0

> <PUBCHEM_HEAVY_ATOM_COUNT>
13

> <PUBCHEM_ATOM_DEF_STEREO_COUNT>
0

> <PUBCHEM_ATOM_UDEF_STEREO_COUNT>
0

> <PUBCHEM_BOND_DEF_STEREO_COUNT>
0

> <PUBCHEM_BOND_UDEF_STEREO_COUNT>
0

> <PUBCHEM_ISOTOPIC_ATOM_COUNT>
0

> <PUBCHEM_COMPONENT_COUNT>
1

> <PUBCHEM_CACTVS_TAUTO_COUNT>
-1

> <PUBCHEM_COORDINATE_TYPE>
1
5
255

> <PUBCHEM_BONDANNOTATIONS>
1  10  8
1  9  8
2  13  8
2  7  8
3  13  8
3  8  8
7  8  8
7  9  8
8  10  8

$$$$
