 
  -OEChem-10192103282D

 79 83  0     1  0  0  0  0  0999 V2000
    2.0000   -3.0234    0.0000 O   0  0  0  0  0  0  0  0  0  0  0  0
   10.9251    0.0631    0.0000 O   0  0  0  0  0  0  0  0  0  0  0  0
   10.0707   -1.4435    0.0000 O   0  0  0  0  0  0  0  0  0  0  0  0
   10.6830    3.0886    0.0000 O   0  0  0  0  0  0  0  0  0  0  0  0
    9.1731    3.9372    0.0000 O   0  0  0  0  0  0  0  0  0  0  0  0
    6.5271   -1.4710    0.0000 C   0  0  2  0  0  0  0  0  0  0  0  0
    5.6610   -0.9711    0.0000 C   0  0  3  0  0  0  0  0  0  0  0  0
    7.3931   -0.9711    0.0000 C   0  0  1  0  0  0  0  0  0  0  0  0
    4.7510   -1.4779    0.0000 C   0  0  2  0  0  0  0  0  0  0  0  0
    4.7430   -2.5195    0.0000 C   0  0  3  0  0  0  0  0  0  0  0  0
    6.5431   -2.5126    0.0000 C   0  0  0  0  0  0  0  0  0  0  0  0
    7.3931    0.0289    0.0000 C   0  0  0  0  0  0  0  0  0  0  0  0
    5.6451   -3.0403    0.0000 C   0  0  0  0  0  0  0  0  0  0  0  0
    8.2870    0.5636    0.0000 C   0  0  3  0  0  0  0  0  0  0  0  0
    8.2870   -1.5057    0.0000 C   0  0  0  0  0  0  0  0  0  0  0  0
    5.6610    0.0289    0.0000 C   0  0  0  0  0  0  0  0  0  0  0  0
    9.1931    0.0498    0.0000 C   0  0  1  0  0  0  0  0  0  0  0  0
    3.8076   -3.0692    0.0000 C   0  0  0  0  0  0  0  0  0  0  0  0
    3.8242   -0.9138    0.0000 C   0  0  0  0  0  0  0  0  0  0  0  0
    9.1931   -0.9919    0.0000 C   0  0  0  0  0  0  0  0  0  0  0  0
    7.1698   -2.2371    0.0000 C   0  0  0  0  0  0  0  0  0  0  0  0
    6.5271    0.5289    0.0000 C   0  0  0  0  0  0  0  0  0  0  0  0
    7.7352   -1.9107    0.0000 C   0  0  0  0  0  0  0  0  0  0  0  0
    4.7587   -0.4779    0.0000 C   0  0  0  0  0  0  0  0  0  0  0  0
    8.2619    1.6483    0.0000 C   0  0  0  0  0  0  0  0  0  0  0  0
   10.1369    0.5850    0.0000 C   0  0  0  0  0  0  0  0  0  0  0  0
    2.8763   -1.4418    0.0000 C   0  0  0  0  0  0  0  0  0  0  0  0
    9.1931    2.2052    0.0000 C   0  0  2  0  0  0  0  0  0  0  0  0
    2.8680   -2.5267    0.0000 C   0  0  0  0  0  0  0  0  0  0  0  0
   10.1369    1.6700    0.0000 C   0  0  0  0  0  0  0  0  0  0  0  0
    3.3109   -3.9372    0.0000 C   0  0  0  0  0  0  0  0  0  0  0  0
    4.3109   -3.9333    0.0000 C   0  0  0  0  0  0  0  0  0  0  0  0
   10.0629   -0.4435    0.0000 C   0  0  0  0  0  0  0  0  0  0  0  0
    8.6831    3.0654    0.0000 C   0  0  0  0  0  0  0  0  0  0  0  0
    9.6830    3.0770    0.0000 C   0  0  0  0  0  0  0  0  0  0  0  0
    6.1980   -0.6611    0.0000 H   0  0  0  0  0  0  0  0  0  0  0  0
    4.7454   -3.1395    0.0000 H   0  0  0  0  0  0  0  0  0  0  0  0
    6.7612   -3.0930    0.0000 H   0  0  0  0  0  0  0  0  0  0  0  0
    7.1523   -2.3971    0.0000 H   0  0  0  0  0  0  0  0  0  0  0  0
    5.2478   -3.5163    0.0000 H   0  0  0  0  0  0  0  0  0  0  0  0
    6.0460   -3.5132    0.0000 H   0  0  0  0  0  0  0  0  0  0  0  0
    8.8191    0.8819    0.0000 H   0  0  0  0  0  0  0  0  0  0  0  0
    7.8824   -1.9755    0.0000 H   0  0  0  0  0  0  0  0  0  0  0  0
    8.6806   -1.9847    0.0000 H   0  0  0  0  0  0  0  0  0  0  0  0
    5.4490    0.6116    0.0000 H   0  0  0  0  0  0  0  0  0  0  0  0
    5.0504   -0.0787    0.0000 H   0  0  0  0  0  0  0  0  0  0  0  0
    4.2324   -0.4472    0.0000 H   0  0  0  0  0  0  0  0  0  0  0  0
    3.4343   -0.4318    0.0000 H   0  0  0  0  0  0  0  0  0  0  0  0
    9.4022   -1.5756    0.0000 H   0  0  0  0  0  0  0  0  0  0  0  0
    9.8040   -0.8858    0.0000 H   0  0  0  0  0  0  0  0  0  0  0  0
    6.6949   -2.6356    0.0000 H   0  0  0  0  0  0  0  0  0  0  0  0
    7.5684   -2.7120    0.0000 H   0  0  0  0  0  0  0  0  0  0  0  0
    7.6448   -1.8386    0.0000 H   0  0  0  0  0  0  0  0  0  0  0  0
    6.5271    1.1490    0.0000 H   0  0  0  0  0  0  0  0  0  0  0  0
    7.1526   -2.1228    0.0000 H   0  0  0  0  0  0  0  0  0  0  0  0
    7.9473   -2.4933    0.0000 H   0  0  0  0  0  0  0  0  0  0  0  0
    8.3178   -1.6986    0.0000 H   0  0  0  0  0  0  0  0  0  0  0  0
    5.3787   -0.4827    0.0000 H   0  0  0  0  0  0  0  0  0  0  0  0
    4.7635    0.1421    0.0000 H   0  0  0  0  0  0  0  0  0  0  0  0
    4.1388   -0.4731    0.0000 H   0  0  0  0  0  0  0  0  0  0  0  0
    8.0394    2.2270    0.0000 H   0  0  0  0  0  0  0  0  0  0  0  0
    7.6537    1.5281    0.0000 H   0  0  0  0  0  0  0  0  0  0  0  0
   10.3459    0.0013    0.0000 H   0  0  0  0  0  0  0  0  0  0  0  0
   10.7477    0.6911    0.0000 H   0  0  0  0  0  0  0  0  0  0  0  0
    2.6718   -0.8565    0.0000 H   0  0  0  0  0  0  0  0  0  0  0  0
    2.2647   -1.5431    0.0000 H   0  0  0  0  0  0  0  0  0  0  0  0
   10.7477    1.5639    0.0000 H   0  0  0  0  0  0  0  0  0  0  0  0
   10.3459    2.2537    0.0000 H   0  0  0  0  0  0  0  0  0  0  0  0
    2.7728   -3.6292    0.0000 H   0  0  0  0  0  0  0  0  0  0  0  0
    3.0030   -4.4753    0.0000 H   0  0  0  0  0  0  0  0  0  0  0  0
    3.8490   -4.2451    0.0000 H   0  0  0  0  0  0  0  0  0  0  0  0
    3.7752   -4.2454    0.0000 H   0  0  0  0  0  0  0  0  0  0  0  0
    4.6230   -4.4690    0.0000 H   0  0  0  0  0  0  0  0  0  0  0  0
    4.8466   -3.6212    0.0000 H   0  0  0  0  0  0  0  0  0  0  0  0
    9.2164    3.3816    0.0000 H   0  0  0  0  0  0  0  0  0  0  0  0
    8.3669    3.5987    0.0000 H   0  0  0  0  0  0  0  0  0  0  0  0
    8.1498    2.7492    0.0000 H   0  0  0  0  0  0  0  0  0  0  0  0
   11.4644   -0.2427    0.0000 H   0  0  0  0  0  0  0  0  0  0  0  0
   10.9867    3.6290    0.0000 H   0  0  0  0  0  0  0  0  0  0  0  0
  1 29  2  0  0  0  0
  2 33  1  0  0  0  0
  2 78  1  0  0  0  0
  3 33  2  0  0  0  0
  4 35  1  0  0  0  0
  4 79  1  0  0  0  0
  5 35  2  0  0  0  0
  6  7  1  0  0  0  0
  6  8  1  0  0  0  0
  6 11  1  0  0  0  0
  6 21  1  1  0  0  0
  7  9  1  0  0  0  0
  7 16  1  0  0  0  0
  7 36  1  0  0  0  0
  8 12  1  0  0  0  0
  8 15  1  0  0  0  0
  8 23  1  6  0  0  0
  9 10  1  0  0  0  0
  9 19  1  0  0  0  0
  9 24  1  1  0  0  0
 10 13  1  0  0  0  0
 10 18  1  0  0  0  0
 10 37  1  0  0  0  0
 11 13  1  0  0  0  0
 11 38  1  0  0  0  0
 11 39  1  0  0  0  0
 12 14  1  0  0  0  0
 12 22  2  0  0  0  0
 13 40  1  0  0  0  0
 13 41  1  0  0  0  0
 14 17  1  0  0  0  0
 14 25  1  0  0  0  0
 14 42  1  0  0  0  0
 15 20  1  0  0  0  0
 15 43  1  0  0  0  0
 15 44  1  0  0  0  0
 16 22  1  0  0  0  0
 16 45  1  0  0  0  0
 16 46  1  0  0  0  0
 17 20  1  0  0  0  0
 17 26  1  0  0  0  0
 17 33  1  1  0  0  0
 18 29  1  0  0  0  0
 18 31  1  0  0  0  0
 18 32  1  0  0  0  0
 19 27  1  0  0  0  0
 19 47  1  0  0  0  0
 19 48  1  0  0  0  0
 20 49  1  0  0  0  0
 20 50  1  0  0  0  0
 21 51  1  0  0  0  0
 21 52  1  0  0  0  0
 21 53  1  0  0  0  0
 22 54  1  0  0  0  0
 23 55  1  0  0  0  0
 23 56  1  0  0  0  0
 23 57  1  0  0  0  0
 24 58  1  0  0  0  0
 24 59  1  0  0  0  0
 24 60  1  0  0  0  0
 25 28  1  0  0  0  0
 25 61  1  0  0  0  0
 25 62  1  0  0  0  0
 26 30  1  0  0  0  0
 26 63  1  0  0  0  0
 26 64  1  0  0  0  0
 27 29  1  0  0  0  0
 27 65  1  0  0  0  0
 27 66  1  0  0  0  0
 28 30  1  0  0  0  0
 28 34  1  1  0  0  0
 28 35  1  0  0  0  0
 30 67  1  0  0  0  0
 30 68  1  0  0  0  0
 31 69  1  0  0  0  0
 31 70  1  0  0  0  0
 31 71  1  0  0  0  0
 32 72  1  0  0  0  0
 32 73  1  0  0  0  0
 32 74  1  0  0  0  0
 34 75  1  0  0  0  0
 34 76  1  0  0  0  0
 34 77  1  0  0  0  0
M  END
> <PUBCHEM_COMPOUND_CID>
71724481

> <PUBCHEM_COMPOUND_CANONICALIZED>
1

> <PUBCHEM_CACTVS_COMPLEXITY>
1030

> <PUBCHEM_CACTVS_HBOND_ACCEPTOR>
5

> <PUBCHEM_CACTVS_HBOND_DONOR>
2

> <PUBCHEM_CACTVS_ROTATABLE_BOND>
2

> <PUBCHEM_CACTVS_SUBSKEYS>
AAADcfB4OAAAAAAAAAAAAAAAAAAAAAAAAAAwYMGCAAAAAADAAAAAGgAACAAADwSAgAACCAAAAgCIAqDSCAAAAAAgAAAACAEAAAgAABIAAQAAQAAEgAAIAAOIyPCPgAAAAAAAAACAAAQAACAAAAAAAAAAAA==

> <PUBCHEM_IUPAC_OPENEYE_NAME>
(2R,4aR,6aS,6bR,12aR)-2,6a,6b,9,9,12a-hexamethyl-10-oxo-3,4,5,6,6a,7,8,8a,11,12,13,14b-dodecahydro-1H-picene-2,4a-dicarboxylic acid

> <PUBCHEM_IUPAC_CAS_NAME>
(2R,4aR,6aS,6bR,12aR)-2,6a,6b,9,9,12a-hexamethyl-10-oxo-3,4,5,6,6a,7,8,8a,11,12,13,14b-dodecahydro-1H-picene-2,4a-dicarboxylic acid

> <PUBCHEM_IUPAC_NAME_MARKUP>
(2<I>R</I>,4<I>a</I><I>R</I>,6<I>a</I><I>S</I>,6<I>b</I><I>R</I>,12<I>a</I><I>R</I>)-2,6<I>a</I>,6<I>b</I>,9,9,12<I>a</I>-hexamethyl-10-oxo-3,4,5,6,6<I>a</I>,7,8,8<I>a</I>,11,12,13,14<I>b</I>-dodecahydro-1<I>H</I>-picene-2,4<I>a</I>-dicarboxylic acid

> <PUBCHEM_IUPAC_NAME>
(2R,4aR,6aS,6bR,12aR)-2,6a,6b,9,9,12a-hexamethyl-10-oxo-3,4,5,6,6a,7,8,8a,11,12,13,14b-dodecahydro-1H-picene-2,4a-dicarboxylic acid

> <PUBCHEM_IUPAC_SYSTEMATIC_NAME>
(2R,4aR,6aS,6bR,12aR)-2,6a,6b,9,9,12a-hexamethyl-10-oxidanylidene-3,4,5,6,6a,7,8,8a,11,12,13,14b-dodecahydro-1H-picene-2,4a-dicarboxylic acid

> <PUBCHEM_IUPAC_TRADITIONAL_NAME>
(2R,4aR,6aS,6bR,12aR)-10-keto-2,6a,6b,9,9,12a-hexamethyl-3,4,5,6,6a,7,8,8a,11,12,13,14b-dodecahydro-1H-picene-2,4a-dicarboxylic acid

> <PUBCHEM_IUPAC_INCHI>
InChI=1S/C30H44O5/c1-25(2)20-9-12-29(6)21(27(20,4)11-10-22(25)31)8-7-18-19-17-26(3,23(32)33)13-15-30(19,24(34)35)16-14-28(18,29)5/h7,19-21H,8-17H2,1-6H3,(H,32,33)(H,34,35)/t19?,20?,21?,26-,27+,28-,29-,30+/m1/s1

> <PUBCHEM_IUPAC_INCHIKEY>
IFNLAQOFYPJPMQ-WDHSQWBPSA-N

> <PUBCHEM_XLOGP3_AA>
5.5

> <PUBCHEM_EXACT_MASS>
484.31887450

> <PUBCHEM_MOLECULAR_FORMULA>
C30H44O5

> <PUBCHEM_MOLECULAR_WEIGHT>
484.7

> <PUBCHEM_OPENEYE_CAN_SMILES>
CC1(C2CCC3(C(C2(CCC1=O)C)CC=C4C3(CCC5(C4CC(CC5)(C)C(=O)O)C(=O)O)C)C)C

> <PUBCHEM_OPENEYE_ISO_SMILES>
C[C@]1(CC[C@@]2(CC[C@@]3(C(=CCC4[C@]3(CCC5[C@@]4(CCC(=O)C5(C)C)C)C)C2C1)C)C(=O)O)C(=O)O

> <PUBCHEM_CACTVS_TPSA>
91.7

> <PUBCHEM_MONOISOTOPIC_WEIGHT>
484.31887450

> <PUBCHEM_TOTAL_CHARGE>
0

> <PUBCHEM_HEAVY_ATOM_COUNT>
35

> <PUBCHEM_ATOM_DEF_STEREO_COUNT>
5

> <PUBCHEM_ATOM_UDEF_STEREO_COUNT>
3

> <PUBCHEM_BOND_DEF_STEREO_COUNT>
0

> <PUBCHEM_BOND_UDEF_STEREO_COUNT>
0

> <PUBCHEM_ISOTOPIC_ATOM_COUNT>
0

> <PUBCHEM_COMPONENT_COUNT>
1

> <PUBCHEM_CACTVS_TAUTO_COUNT>
-1

> <PUBCHEM_COORDINATE_TYPE>
1
5
255

> <PUBCHEM_BONDANNOTATIONS>
10  13  3
14  25  3
17  33  5
28  34  5
6  21  5
7  16  3
8  23  6
9  24  5

$$$$
