 
  -OEChem-10192104042D

 50 53  0     1  0  0  0  0  0999 V2000
    7.7577    1.7817    0.0000 O   0  0  0  0  0  0  0  0  0  0  0  0
    6.0820   -0.3764    0.0000 O   0  0  0  0  0  0  0  0  0  0  0  0
    4.6732    0.7471    0.0000 O   0  0  0  0  0  0  0  0  0  0  0  0
    8.6638    0.2263    0.0000 O   0  0  0  0  0  0  0  0  0  0  0  0
    6.3045    2.8455    0.0000 O   0  0  0  0  0  0  0  0  0  0  0  0
    3.4947    2.2808    0.0000 O   0  0  0  0  0  0  0  0  0  0  0  0
    2.6131   -3.2812    0.0000 O   0  0  0  0  0  0  0  0  0  0  0  0
   12.1202    3.2812    0.0000 O   0  0  0  0  0  0  0  0  0  0  0  0
    6.8638    1.2471    0.0000 C   0  0  2  0  0  0  0  0  0  0  0  0
    6.8638    0.2471    0.0000 C   0  0  2  0  0  0  0  0  0  0  0  0
    6.0820    1.8706    0.0000 C   0  0  1  0  0  0  0  0  0  0  0  0
    5.1070    1.6480    0.0000 C   0  0  1  0  0  0  0  0  0  0  0  0
    7.7577   -0.2876    0.0000 C   0  0  0  0  0  0  0  0  0  0  0  0
    5.1070   -0.1539    0.0000 C   0  0  3  0  0  0  0  0  0  0  0  0
    8.6638    1.2679    0.0000 C   0  0  3  0  0  0  0  0  0  0  0  0
    4.4835    2.4299    0.0000 C   0  0  0  0  0  0  0  0  0  0  0  0
    4.4835   -0.9357    0.0000 C   0  0  0  0  0  0  0  0  0  0  0  0
    9.5279    1.7712    0.0000 C   0  0  0  0  0  0  0  0  0  0  0  0
    3.4947   -0.7867    0.0000 C   0  0  0  0  0  0  0  0  0  0  0  0
    4.8489   -1.8666    0.0000 C   0  0  0  0  0  0  0  0  0  0  0  0
    9.5240    2.7712    0.0000 C   0  0  0  0  0  0  0  0  0  0  0  0
   10.3958    1.2746    0.0000 C   0  0  0  0  0  0  0  0  0  0  0  0
    2.8712   -1.5685    0.0000 C   0  0  0  0  0  0  0  0  0  0  0  0
    4.2254   -2.6484    0.0000 C   0  0  0  0  0  0  0  0  0  0  0  0
   10.3881    3.2746    0.0000 C   0  0  0  0  0  0  0  0  0  0  0  0
   11.2599    1.7779    0.0000 C   0  0  0  0  0  0  0  0  0  0  0  0
    3.2366   -2.4994    0.0000 C   0  0  0  0  0  0  0  0  0  0  0  0
   11.2561    2.7779    0.0000 C   0  0  0  0  0  0  0  0  0  0  0  0
    7.6032    0.8278    0.0000 H   0  0  0  0  0  0  0  0  0  0  0  0
    6.9208   -0.6010    0.0000 H   0  0  0  0  0  0  0  0  0  0  0  0
    6.6672    2.0753    0.0000 H   0  0  0  0  0  0  0  0  0  0  0  0
    4.4909    1.5786    0.0000 H   0  0  0  0  0  0  0  0  0  0  0  0
    7.3531   -0.7574    0.0000 H   0  0  0  0  0  0  0  0  0  0  0  0
    8.1514   -0.7666    0.0000 H   0  0  0  0  0  0  0  0  0  0  0  0
    5.3118   -0.7391    0.0000 H   0  0  0  0  0  0  0  0  0  0  0  0
    9.2013    0.9589    0.0000 H   0  0  0  0  0  0  0  0  0  0  0  0
    5.0280    2.7264    0.0000 H   0  0  0  0  0  0  0  0  0  0  0  0
    4.2861    3.0176    0.0000 H   0  0  0  0  0  0  0  0  0  0  0  0
    5.8500    3.2672    0.0000 H   0  0  0  0  0  0  0  0  0  0  0  0
    3.2682   -0.2095    0.0000 H   0  0  0  0  0  0  0  0  0  0  0  0
    5.4620   -1.9590    0.0000 H   0  0  0  0  0  0  0  0  0  0  0  0
    8.9859    3.0791    0.0000 H   0  0  0  0  0  0  0  0  0  0  0  0
   10.3982    0.6546    0.0000 H   0  0  0  0  0  0  0  0  0  0  0  0
    3.1082    2.7656    0.0000 H   0  0  0  0  0  0  0  0  0  0  0  0
    2.2582   -1.4761    0.0000 H   0  0  0  0  0  0  0  0  0  0  0  0
    4.4519   -3.2256    0.0000 H   0  0  0  0  0  0  0  0  0  0  0  0
   10.3857    3.8945    0.0000 H   0  0  0  0  0  0  0  0  0  0  0  0
   11.7981    1.4700    0.0000 H   0  0  0  0  0  0  0  0  0  0  0  0
    2.0000   -3.1888    0.0000 H   0  0  0  0  0  0  0  0  0  0  0  0
   12.6583    2.9733    0.0000 H   0  0  0  0  0  0  0  0  0  0  0  0
  1  9  1  0  0  0  0
  1 15  1  0  0  0  0
  2 10  1  0  0  0  0
  2 14  1  0  0  0  0
  3 12  1  0  0  0  0
  3 14  1  0  0  0  0
  4 13  1  0  0  0  0
  4 15  1  0  0  0  0
 11  5  1  1  0  0  0
  5 39  1  0  0  0  0
  6 16  1  0  0  0  0
  6 44  1  0  0  0  0
  7 27  1  0  0  0  0
  7 49  1  0  0  0  0
  8 28  1  0  0  0  0
  8 50  1  0  0  0  0
  9 10  1  0  0  0  0
  9 11  1  0  0  0  0
  9 29  1  1  0  0  0
 10 13  1  0  0  0  0
 10 30  1  1  0  0  0
 11 12  1  0  0  0  0
 11 31  1  0  0  0  0
 12 16  1  6  0  0  0
 12 32  1  0  0  0  0
 13 33  1  0  0  0  0
 13 34  1  0  0  0  0
 14 17  1  0  0  0  0
 14 35  1  0  0  0  0
 15 18  1  0  0  0  0
 15 36  1  0  0  0  0
 16 37  1  0  0  0  0
 16 38  1  0  0  0  0
 17 19  2  0  0  0  0
 17 20  1  0  0  0  0
 18 21  2  0  0  0  0
 18 22  1  0  0  0  0
 19 23  1  0  0  0  0
 19 40  1  0  0  0  0
 20 24  2  0  0  0  0
 20 41  1  0  0  0  0
 21 25  1  0  0  0  0
 21 42  1  0  0  0  0
 22 26  2  0  0  0  0
 22 43  1  0  0  0  0
 23 27  2  0  0  0  0
 23 45  1  0  0  0  0
 24 27  1  0  0  0  0
 24 46  1  0  0  0  0
 25 28  2  0  0  0  0
 25 47  1  0  0  0  0
 26 28  1  0  0  0  0
 26 48  1  0  0  0  0
M  END
> <PUBCHEM_COMPOUND_CID>
101530057

> <PUBCHEM_COMPOUND_CANONICALIZED>
1

> <PUBCHEM_CACTVS_COMPLEXITY>
489

> <PUBCHEM_CACTVS_HBOND_ACCEPTOR>
8

> <PUBCHEM_CACTVS_HBOND_DONOR>
4

> <PUBCHEM_CACTVS_ROTATABLE_BOND>
3

> <PUBCHEM_CACTVS_SUBSKEYS>
AAADceB4PAAAAAAAAAAAAAAAAAAAAAAAAAA0YIAABIAAAAABQAAAGgAACAAADBSwmAMwDoAABgCAAiBCAAACAAAgIAAIiAAGCIgZNiKCMRqicAAlwBEPuAfA4CwOIAAAAAAAAABAAAAAAAAAAAAAAAAAAA==

> <PUBCHEM_IUPAC_OPENEYE_NAME>
(4aS,8R,9R,9aS)-8-(hydroxymethyl)-2,6-bis(4-hydroxyphenyl)-4a,8,9,9a-tetrahydro-4H-[1,3]dioxino[5,4-d][1,3]dioxepin-9-ol

> <PUBCHEM_IUPAC_CAS_NAME>
(4aS,8R,9R,9aS)-8-(hydroxymethyl)-2,6-bis(4-hydroxyphenyl)-4a,8,9,9a-tetrahydro-4H-[1,3]dioxino[5,4-d][1,3]dioxepin-9-ol

> <PUBCHEM_IUPAC_NAME_MARKUP>
(4<I>a</I><I>S</I>,8<I>R</I>,9<I>R</I>,9<I>a</I><I>S</I>)-8-(hydroxymethyl)-2,6-bis(4-hydroxyphenyl)-4<I>a</I>,8,9,9<I>a</I>-tetrahydro-4<I>H</I>-[1,3]dioxino[5,4-d][1,3]dioxepin-9-ol

> <PUBCHEM_IUPAC_NAME>
(4aS,8R,9R,9aS)-8-(hydroxymethyl)-2,6-bis(4-hydroxyphenyl)-4a,8,9,9a-tetrahydro-4H-[1,3]dioxino[5,4-d][1,3]dioxepin-9-ol

> <PUBCHEM_IUPAC_SYSTEMATIC_NAME>
(4aS,8R,9R,9aS)-8-(hydroxymethyl)-2,6-bis(4-hydroxyphenyl)-4a,8,9,9a-tetrahydro-4H-[1,3]dioxino[5,4-d][1,3]dioxepin-9-ol

> <PUBCHEM_IUPAC_TRADITIONAL_NAME>
(4aS,8R,9R,9aS)-2,6-bis(4-hydroxyphenyl)-8-methylol-4a,8,9,9a-tetrahydro-4H-[1,3]dioxino[5,4-d][1,3]dioxepin-9-ol

> <PUBCHEM_IUPAC_INCHI>
InChI=1S/C20H22O8/c21-9-15-17(24)18-16(27-20(26-15)12-3-7-14(23)8-4-12)10-25-19(28-18)11-1-5-13(22)6-2-11/h1-8,15-24H,9-10H2/t15-,16+,17-,18-,19?,20?/m1/s1

> <PUBCHEM_IUPAC_INCHIKEY>
RHLVFPADOCMUGX-VVBFYGJXSA-N

> <PUBCHEM_XLOGP3_AA>
1.2

> <PUBCHEM_EXACT_MASS>
390.13146766

> <PUBCHEM_MOLECULAR_FORMULA>
C20H22O8

> <PUBCHEM_MOLECULAR_WEIGHT>
390.4

> <PUBCHEM_OPENEYE_CAN_SMILES>
C1C2C(C(C(OC(O2)C3=CC=C(C=C3)O)CO)O)OC(O1)C4=CC=C(C=C4)O

> <PUBCHEM_OPENEYE_ISO_SMILES>
C1[C@H]2[C@H]([C@@H]([C@H](OC(O2)C3=CC=C(C=C3)O)CO)O)OC(O1)C4=CC=C(C=C4)O

> <PUBCHEM_CACTVS_TPSA>
118

> <PUBCHEM_MONOISOTOPIC_WEIGHT>
390.13146766

> <PUBCHEM_TOTAL_CHARGE>
0

> <PUBCHEM_HEAVY_ATOM_COUNT>
28

> <PUBCHEM_ATOM_DEF_STEREO_COUNT>
4

> <PUBCHEM_ATOM_UDEF_STEREO_COUNT>
2

> <PUBCHEM_BOND_DEF_STEREO_COUNT>
0

> <PUBCHEM_BOND_UDEF_STEREO_COUNT>
0

> <PUBCHEM_ISOTOPIC_ATOM_COUNT>
0

> <PUBCHEM_COMPONENT_COUNT>
1

> <PUBCHEM_CACTVS_TAUTO_COUNT>
-1

> <PUBCHEM_COORDINATE_TYPE>
1
5
255

> <PUBCHEM_BONDANNOTATIONS>
10  30  5
12  16  6
14  17  3
15  18  3
17  19  8
17  20  8
18  21  8
18  22  8
19  23  8
20  24  8
21  25  8
22  26  8
23  27  8
24  27  8
25  28  8
26  28  8
11  5  5
9  29  5

$$$$
