 
  -OEChem-10192104272D

 90 93  0     1  0  0  0  0  0999 V2000
    7.1962   -1.2663    0.0000 O   0  0  0  0  0  0  0  0  0  0  0  0
    5.4641   -1.2663    0.0000 O   0  0  0  0  0  0  0  0  0  0  0  0
    6.3301    0.2337    0.0000 O   0  0  0  0  0  0  0  0  0  0  0  0
    7.1962   -3.2663    0.0000 O   0  0  0  0  0  0  0  0  0  0  0  0
    5.4641   -4.2663    0.0000 O   0  0  0  0  0  0  0  0  0  0  0  0
    3.7320   -3.2663    0.0000 O   0  0  0  0  0  0  0  0  0  0  0  0
    3.7320   -0.2663    0.0000 O   0  0  0  0  0  0  0  0  0  0  0  0
    6.3301    3.2337    0.0000 O   0  0  0  0  0  0  0  0  0  0  0  0
    8.0622    3.2337    0.0000 O   0  0  0  0  0  0  0  0  0  0  0  0
    9.9225    5.2258    0.0000 O   0  0  0  0  0  0  0  0  0  0  0  0
   11.9223    5.2490    0.0000 O   0  0  0  0  0  0  0  0  0  0  0  0
    6.3301   -4.7663    0.0000 O   0  0  0  0  0  0  0  0  0  0  0  0
    3.7320   -4.2663    0.0000 O   0  0  0  0  0  0  0  0  0  0  0  0
    2.8660   -1.7663    0.0000 O   0  0  0  0  0  0  0  0  0  0  0  0
    2.0000   -0.2663    0.0000 O   0  0  0  0  0  0  0  0  0  0  0  0
   10.4525    0.8336    0.0000 N   0  0  0  0  0  0  0  0  0  0  0  0
    8.0622    1.2337    0.0000 C   0  0  2  0  0  0  0  0  0  0  0  0
    8.0622    0.2337    0.0000 C   0  0  2  0  0  0  0  0  0  0  0  0
    8.9282    1.7337    0.0000 C   0  0  0  0  0  0  0  0  0  0  0  0
    9.9282    1.7337    0.0000 C   0  0  1  0  0  0  0  0  0  0  0  0
    7.1962   -0.2663    0.0000 C   0  0  2  0  0  0  0  0  0  0  0  0
    6.3301   -2.7663    0.0000 C   0  0  1  0  0  0  0  0  0  0  0  0
    6.3301   -1.7663    0.0000 C   0  0  2  0  0  0  0  0  0  0  0  0
    5.4641   -3.2663    0.0000 C   0  0  2  0  0  0  0  0  0  0  0  0
    4.5981   -2.7663    0.0000 C   0  0  1  0  0  0  0  0  0  0  0  0
    4.5981   -1.7663    0.0000 C   0  0  1  0  0  0  0  0  0  0  0  0
    7.1962    1.7337    0.0000 C   0  0  0  0  0  0  0  0  0  0  0  0
   10.4525    2.6337    0.0000 C   0  0  0  0  0  0  0  0  0  0  0  0
    8.9282   -0.2663    0.0000 C   0  0  0  0  0  0  0  0  0  0  0  0
   11.4941    0.8456    0.0000 C   0  0  0  0  0  0  0  0  0  0  0  0
   11.4524    2.6453    0.0000 C   0  0  0  0  0  0  0  0  0  0  0  0
   11.9974    1.7576    0.0000 C   0  0  0  0  0  0  0  0  0  0  0  0
    6.3301    1.2337    0.0000 C   0  0  0  0  0  0  0  0  0  0  0  0
    3.7320   -1.2663    0.0000 C   0  0  0  0  0  0  0  0  0  0  0  0
    9.9425    3.4939    0.0000 C   0  0  0  0  0  0  0  0  0  0  0  0
    7.1962    2.7337    0.0000 C   0  0  0  0  0  0  0  0  0  0  0  0
   11.9424    3.5170    0.0000 C   0  0  0  0  0  0  0  0  0  0  0  0
    8.9282   -1.2663    0.0000 C   0  0  0  0  0  0  0  0  0  0  0  0
   10.4325    4.3657    0.0000 C   0  0  0  0  0  0  0  0  0  0  0  0
   11.4324    4.3772    0.0000 C   0  0  0  0  0  0  0  0  0  0  0  0
    7.1962   -4.2663    0.0000 C   0  0  0  0  0  0  0  0  0  0  0  0
    4.5981   -4.7663    0.0000 C   0  0  0  0  0  0  0  0  0  0  0  0
    2.8660   -2.7663    0.0000 C   0  0  0  0  0  0  0  0  0  0  0  0
    8.0622   -4.7663    0.0000 C   0  0  0  0  0  0  0  0  0  0  0  0
    4.5981   -5.7663    0.0000 C   0  0  0  0  0  0  0  0  0  0  0  0
    2.0000   -3.2663    0.0000 C   0  0  0  0  0  0  0  0  0  0  0  0
    2.8660    0.2337    0.0000 C   0  0  0  0  0  0  0  0  0  0  0  0
    6.3301    4.2337    0.0000 C   0  0  0  0  0  0  0  0  0  0  0  0
    2.8660    1.2337    0.0000 C   0  0  0  0  0  0  0  0  0  0  0  0
    8.0622    1.8537    0.0000 H   0  0  0  0  0  0  0  0  0  0  0  0
    8.5991    0.5437    0.0000 H   0  0  0  0  0  0  0  0  0  0  0  0
    9.1403    2.3163    0.0000 H   0  0  0  0  0  0  0  0  0  0  0  0
    9.0887    1.1348    0.0000 H   0  0  0  0  0  0  0  0  0  0  0  0
    9.6192    1.1961    0.0000 H   0  0  0  0  0  0  0  0  0  0  0  0
    7.7331   -0.5763    0.0000 H   0  0  0  0  0  0  0  0  0  0  0  0
    6.3301   -3.3863    0.0000 H   0  0  0  0  0  0  0  0  0  0  0  0
    6.3301   -1.1463    0.0000 H   0  0  0  0  0  0  0  0  0  0  0  0
    4.9272   -3.5763    0.0000 H   0  0  0  0  0  0  0  0  0  0  0  0
    4.5981   -3.3863    0.0000 H   0  0  0  0  0  0  0  0  0  0  0  0
    4.5981   -1.1463    0.0000 H   0  0  0  0  0  0  0  0  0  0  0  0
   10.1466    0.2943    0.0000 H   0  0  0  0  0  0  0  0  0  0  0  0
    9.4651    0.0437    0.0000 H   0  0  0  0  0  0  0  0  0  0  0  0
   11.3950    0.2336    0.0000 H   0  0  0  0  0  0  0  0  0  0  0  0
   12.0801    0.6434    0.0000 H   0  0  0  0  0  0  0  0  0  0  0  0
   12.4809    1.3695    0.0000 H   0  0  0  0  0  0  0  0  0  0  0  0
   12.4625    2.1676    0.0000 H   0  0  0  0  0  0  0  0  0  0  0  0
    5.7932    1.5437    0.0000 H   0  0  0  0  0  0  0  0  0  0  0  0
    3.1215   -1.1587    0.0000 H   0  0  0  0  0  0  0  0  0  0  0  0
    3.5200   -1.8489    0.0000 H   0  0  0  0  0  0  0  0  0  0  0  0
    9.3226    3.4868    0.0000 H   0  0  0  0  0  0  0  0  0  0  0  0
   12.5623    3.5242    0.0000 H   0  0  0  0  0  0  0  0  0  0  0  0
    8.3913   -1.5763    0.0000 H   0  0  0  0  0  0  0  0  0  0  0  0
    9.4651   -1.5763    0.0000 H   0  0  0  0  0  0  0  0  0  0  0  0
    7.7522   -5.3033    0.0000 H   0  0  0  0  0  0  0  0  0  0  0  0
    8.5991   -5.0763    0.0000 H   0  0  0  0  0  0  0  0  0  0  0  0
    8.3722   -4.2294    0.0000 H   0  0  0  0  0  0  0  0  0  0  0  0
    3.9781   -5.7663    0.0000 H   0  0  0  0  0  0  0  0  0  0  0  0
    4.5981   -6.3863    0.0000 H   0  0  0  0  0  0  0  0  0  0  0  0
    5.2181   -5.7663    0.0000 H   0  0  0  0  0  0  0  0  0  0  0  0
    1.6900   -2.7294    0.0000 H   0  0  0  0  0  0  0  0  0  0  0  0
    1.4631   -3.5763    0.0000 H   0  0  0  0  0  0  0  0  0  0  0  0
    2.3100   -3.8033    0.0000 H   0  0  0  0  0  0  0  0  0  0  0  0
   10.2263    5.7663    0.0000 H   0  0  0  0  0  0  0  0  0  0  0  0
   12.5423    5.2562    0.0000 H   0  0  0  0  0  0  0  0  0  0  0  0
    6.9501    4.2337    0.0000 H   0  0  0  0  0  0  0  0  0  0  0  0
    6.3301    4.8537    0.0000 H   0  0  0  0  0  0  0  0  0  0  0  0
    5.7101    4.2337    0.0000 H   0  0  0  0  0  0  0  0  0  0  0  0
    3.4860    1.2337    0.0000 H   0  0  0  0  0  0  0  0  0  0  0  0
    2.8660    1.8537    0.0000 H   0  0  0  0  0  0  0  0  0  0  0  0
    2.2460    1.2337    0.0000 H   0  0  0  0  0  0  0  0  0  0  0  0
 21  1  1  6  0  0  0
 23  1  1  1  0  0  0
  2 23  1  0  0  0  0
  2 26  1  0  0  0  0
  3 21  1  0  0  0  0
  3 33  1  0  0  0  0
 22  4  1  6  0  0  0
  4 41  1  0  0  0  0
 24  5  1  1  0  0  0
  5 42  1  0  0  0  0
 25  6  1  6  0  0  0
  6 43  1  0  0  0  0
  7 34  1  0  0  0  0
  7 47  1  0  0  0  0
  8 36  1  0  0  0  0
  8 48  1  0  0  0  0
  9 36  2  0  0  0  0
 10 39  1  0  0  0  0
 10 83  1  0  0  0  0
 11 40  1  0  0  0  0
 11 84  1  0  0  0  0
 12 41  2  0  0  0  0
 13 42  2  0  0  0  0
 14 43  2  0  0  0  0
 15 47  2  0  0  0  0
 16 20  1  0  0  0  0
 16 30  1  0  0  0  0
 16 61  1  0  0  0  0
 17 18  1  0  0  0  0
 17 19  1  1  0  0  0
 17 27  1  0  0  0  0
 17 50  1  0  0  0  0
 18 21  1  0  0  0  0
 18 29  1  1  0  0  0
 18 51  1  0  0  0  0
 20 19  1  1  0  0  0
 19 52  1  0  0  0  0
 19 53  1  0  0  0  0
 20 28  1  0  0  0  0
 20 54  1  0  0  0  0
 21 55  1  0  0  0  0
 22 23  1  0  0  0  0
 22 24  1  0  0  0  0
 22 56  1  0  0  0  0
 23 57  1  0  0  0  0
 24 25  1  0  0  0  0
 24 58  1  0  0  0  0
 25 26  1  0  0  0  0
 25 59  1  0  0  0  0
 26 34  1  1  0  0  0
 26 60  1  0  0  0  0
 27 33  2  0  0  0  0
 27 36  1  0  0  0  0
 28 31  1  0  0  0  0
 28 35  2  0  0  0  0
 29 38  2  0  0  0  0
 29 62  1  0  0  0  0
 30 32  1  0  0  0  0
 30 63  1  0  0  0  0
 30 64  1  0  0  0  0
 31 32  1  0  0  0  0
 31 37  2  0  0  0  0
 32 65  1  0  0  0  0
 32 66  1  0  0  0  0
 33 67  1  0  0  0  0
 34 68  1  0  0  0  0
 34 69  1  0  0  0  0
 35 39  1  0  0  0  0
 35 70  1  0  0  0  0
 37 40  1  0  0  0  0
 37 71  1  0  0  0  0
 38 72  1  0  0  0  0
 38 73  1  0  0  0  0
 39 40  2  0  0  0  0
 41 44  1  0  0  0  0
 42 45  1  0  0  0  0
 43 46  1  0  0  0  0
 44 74  1  0  0  0  0
 44 75  1  0  0  0  0
 44 76  1  0  0  0  0
 45 77  1  0  0  0  0
 45 78  1  0  0  0  0
 45 79  1  0  0  0  0
 46 80  1  0  0  0  0
 46 81  1  0  0  0  0
 46 82  1  0  0  0  0
 47 49  1  0  0  0  0
 48 85  1  0  0  0  0
 48 86  1  0  0  0  0
 48 87  1  0  0  0  0
 49 88  1  0  0  0  0
 49 89  1  0  0  0  0
 49 90  1  0  0  0  0
M  END
> <PUBCHEM_COMPOUND_CID>
10794751

> <PUBCHEM_COMPOUND_CANONICALIZED>
1

> <PUBCHEM_CACTVS_COMPLEXITY>
1270

> <PUBCHEM_CACTVS_HBOND_ACCEPTOR>
16

> <PUBCHEM_CACTVS_HBOND_DONOR>
3

> <PUBCHEM_CACTVS_ROTATABLE_BOND>
16

> <PUBCHEM_CACTVS_SUBSKEYS>
AAADcfB+PAAAAAAAAAAAAAAAAAAAAAAAAAA8SIEAAAAAAACxAAAAHgAQCAAADTzxmAcyDoLABgCIAiDSCACCCAAgIAAIiIEOjMgZJjKCsROmcAll0BGPuIf4/f+eoAABAAAQQABAAAIAACCAAAAAAAAAAA==

> <PUBCHEM_IUPAC_OPENEYE_NAME>
methyl (2S,3R,4S)-4-[[(1S)-6,7-dihydroxy-1,2,3,4-tetrahydroisoquinolin-1-yl]methyl]-2-[(2S,3R,4S,5R,6R)-3,4,5-triacetoxy-6-(acetoxymethyl)tetrahydropyran-2-yl]oxy-3-vinyl-3,4-dihydro-2H-pyran-5-carboxylate

> <PUBCHEM_IUPAC_CAS_NAME>
(2S,3R,4S)-4-[[(1S)-6,7-dihydroxy-1,2,3,4-tetrahydroisoquinolin-1-yl]methyl]-3-ethenyl-2-[[(2S,3R,4S,5R,6R)-3,4,5-triacetyloxy-6-(acetyloxymethyl)-2-oxanyl]oxy]-3,4-dihydro-2H-pyran-5-carboxylic acid methyl ester

> <PUBCHEM_IUPAC_NAME_MARKUP>
methyl (2<I>S</I>,3<I>R</I>,4<I>S</I>)-4-[[(1<I>S</I>)-6,7-dihydroxy-1,2,3,4-tetrahydroisoquinolin-1-yl]methyl]-3-ethenyl-2-[(2<I>S</I>,3<I>R</I>,4<I>S</I>,5<I>R</I>,6<I>R</I>)-3,4,5-triacetyloxy-6-(acetyloxymethyl)oxan-2-yl]oxy-3,4-dihydro-2<I>H</I>-pyran-5-carboxylate

> <PUBCHEM_IUPAC_NAME>
methyl (2S,3R,4S)-4-[[(1S)-6,7-dihydroxy-1,2,3,4-tetrahydroisoquinolin-1-yl]methyl]-3-ethenyl-2-[(2S,3R,4S,5R,6R)-3,4,5-triacetyloxy-6-(acetyloxymethyl)oxan-2-yl]oxy-3,4-dihydro-2H-pyran-5-carboxylate

> <PUBCHEM_IUPAC_SYSTEMATIC_NAME>
methyl (2S,3R,4S)-4-[[(1S)-6,7-bis(oxidanyl)-1,2,3,4-tetrahydroisoquinolin-1-yl]methyl]-3-ethenyl-2-[(2S,3R,4S,5R,6R)-3,4,5-triacetyloxy-6-(acetyloxymethyl)oxan-2-yl]oxy-3,4-dihydro-2H-pyran-5-carboxylate

> <PUBCHEM_IUPAC_TRADITIONAL_NAME>
(2S,3R,4S)-4-[[(1S)-6,7-dihydroxy-1,2,3,4-tetrahydroisoquinolin-1-yl]methyl]-2-[(2S,3R,4S,5R,6R)-3,4,5-triacetoxy-6-(acetoxymethyl)tetrahydropyran-2-yl]oxy-3-vinyl-3,4-dihydro-2H-pyran-5-carboxylic acid methyl ester

> <PUBCHEM_IUPAC_INCHI>
InChI=1S/C33H41NO15/c1-7-20-22(11-24-21-12-26(40)25(39)10-19(21)8-9-34-24)23(31(41)42-6)13-44-32(20)49-33-30(47-18(5)38)29(46-17(4)37)28(45-16(3)36)27(48-33)14-43-15(2)35/h7,10,12-13,20,22,24,27-30,32-34,39-40H,1,8-9,11,14H2,2-6H3/t20-,22+,24+,27-,28-,29+,30-,32+,33+/m1/s1

> <PUBCHEM_IUPAC_INCHIKEY>
LCNIZAGVNJSZJT-UCSYLQSPSA-N

> <PUBCHEM_XLOGP3_AA>
1.5

> <PUBCHEM_EXACT_MASS>
691.24761960

> <PUBCHEM_MOLECULAR_FORMULA>
C33H41NO15

> <PUBCHEM_MOLECULAR_WEIGHT>
691.7

> <PUBCHEM_OPENEYE_CAN_SMILES>
CC(=O)OCC1C(C(C(C(O1)OC2C(C(C(=CO2)C(=O)OC)CC3C4=CC(=C(C=C4CCN3)O)O)C=C)OC(=O)C)OC(=O)C)OC(=O)C

> <PUBCHEM_OPENEYE_ISO_SMILES>
CC(=O)OC[C@@H]1[C@H]([C@@H]([C@H]([C@@H](O1)O[C@H]2[C@@H]([C@@H](C(=CO2)C(=O)OC)C[C@H]3C4=CC(=C(C=C4CCN3)O)O)C=C)OC(=O)C)OC(=O)C)OC(=O)C

> <PUBCHEM_CACTVS_TPSA>
212

> <PUBCHEM_MONOISOTOPIC_WEIGHT>
691.24761960

> <PUBCHEM_TOTAL_CHARGE>
0

> <PUBCHEM_HEAVY_ATOM_COUNT>
49

> <PUBCHEM_ATOM_DEF_STEREO_COUNT>
9

> <PUBCHEM_ATOM_UDEF_STEREO_COUNT>
0

> <PUBCHEM_BOND_DEF_STEREO_COUNT>
0

> <PUBCHEM_BOND_UDEF_STEREO_COUNT>
0

> <PUBCHEM_ISOTOPIC_ATOM_COUNT>
0

> <PUBCHEM_COMPONENT_COUNT>
1

> <PUBCHEM_CACTVS_TAUTO_COUNT>
-1

> <PUBCHEM_COORDINATE_TYPE>
1
5
255

> <PUBCHEM_BONDANNOTATIONS>
21  1  6
23  1  5
17  19  5
18  29  5
20  19  5
26  34  5
28  31  8
28  35  8
31  37  8
35  39  8
37  40  8
39  40  8
22  4  6
24  5  5
25  6  6

$$$$
