 
  -OEChem-10192104162D

 68 68  0     1  0  0  0  0  0999 V2000
    4.5981   -4.7694    0.0000 P   0  0  3  0  0  0  0  0  0  0  0  0
    4.5981   -3.7694    0.0000 O   0  0  0  0  0  0  0  0  0  0  0  0
    9.7942    4.2306    0.0000 O   0  0  0  0  0  0  0  0  0  0  0  0
    8.0622    4.2306    0.0000 O   0  0  0  0  0  0  0  0  0  0  0  0
    8.0342    5.5094    0.0000 O   0  0  0  0  0  0  0  0  0  0  0  0
   11.5543    5.5094    0.0000 O   0  0  0  0  0  0  0  0  0  0  0  0
    3.7320   -5.2694    0.0000 N   0  0  0  0  0  0  0  0  0  0  0  0
    9.7942    5.2306    0.0000 N   0  0  0  0  0  0  0  0  0  0  0  0
    7.1962   -0.2694    0.0000 C   0  0  0  0  0  0  0  0  0  0  0  0
    6.3301   -0.7694    0.0000 C   0  0  0  0  0  0  0  0  0  0  0  0
    7.1962    0.7306    0.0000 C   0  0  0  0  0  0  0  0  0  0  0  0
    6.3301   -1.7694    0.0000 C   0  0  0  0  0  0  0  0  0  0  0  0
    3.7320   -6.2694    0.0000 C   0  0  0  0  0  0  0  0  0  0  0  0
    2.8660   -4.7694    0.0000 C   0  0  0  0  0  0  0  0  0  0  0  0
    8.0622    1.2306    0.0000 C   0  0  0  0  0  0  0  0  0  0  0  0
    5.4641   -2.2694    0.0000 C   0  0  0  0  0  0  0  0  0  0  0  0
    8.0622    2.2306    0.0000 C   0  0  0  0  0  0  0  0  0  0  0  0
    5.4641   -3.2694    0.0000 C   0  0  0  0  0  0  0  0  0  0  0  0
    2.8660   -6.7694    0.0000 C   0  0  0  0  0  0  0  0  0  0  0  0
    4.5981   -6.7694    0.0000 C   0  0  0  0  0  0  0  0  0  0  0  0
    2.0000   -5.2694    0.0000 C   0  0  0  0  0  0  0  0  0  0  0  0
    2.8660   -3.7694    0.0000 C   0  0  0  0  0  0  0  0  0  0  0  0
    8.9282    2.7306    0.0000 C   0  0  0  0  0  0  0  0  0  0  0  0
    5.4641   -5.2694    0.0000 C   0  0  0  0  0  0  0  0  0  0  0  0
    8.9282    3.7306    0.0000 C   0  0  0  0  0  0  0  0  0  0  0  0
    9.2942    6.7694    0.0000 C   0  0  0  0  0  0  0  0  0  0  0  0
   10.2942    6.7694    0.0000 C   0  0  0  0  0  0  0  0  0  0  0  0
    8.9852    5.8184    0.0000 C   0  0  0  0  0  0  0  0  0  0  0  0
   10.6032    5.8184    0.0000 C   0  0  0  0  0  0  0  0  0  0  0  0
    7.4082   -0.8520    0.0000 H   0  0  0  0  0  0  0  0  0  0  0  0
    7.8067   -0.1618    0.0000 H   0  0  0  0  0  0  0  0  0  0  0  0
    6.1181   -0.1868    0.0000 H   0  0  0  0  0  0  0  0  0  0  0  0
    5.7196   -0.8771    0.0000 H   0  0  0  0  0  0  0  0  0  0  0  0
    6.9841    1.3132    0.0000 H   0  0  0  0  0  0  0  0  0  0  0  0
    6.5856    0.6229    0.0000 H   0  0  0  0  0  0  0  0  0  0  0  0
    6.5422   -2.3520    0.0000 H   0  0  0  0  0  0  0  0  0  0  0  0
    6.9407   -1.6618    0.0000 H   0  0  0  0  0  0  0  0  0  0  0  0
    4.2690   -5.9594    0.0000 H   0  0  0  0  0  0  0  0  0  0  0  0
    2.8660   -5.3894    0.0000 H   0  0  0  0  0  0  0  0  0  0  0  0
    8.2742    0.6480    0.0000 H   0  0  0  0  0  0  0  0  0  0  0  0
    8.6728    1.3382    0.0000 H   0  0  0  0  0  0  0  0  0  0  0  0
    5.2520   -1.6868    0.0000 H   0  0  0  0  0  0  0  0  0  0  0  0
    4.8535   -2.3771    0.0000 H   0  0  0  0  0  0  0  0  0  0  0  0
    7.8501    2.8132    0.0000 H   0  0  0  0  0  0  0  0  0  0  0  0
    7.4516    2.1229    0.0000 H   0  0  0  0  0  0  0  0  0  0  0  0
    5.6762   -3.8520    0.0000 H   0  0  0  0  0  0  0  0  0  0  0  0
    6.0747   -3.1618    0.0000 H   0  0  0  0  0  0  0  0  0  0  0  0
    2.5560   -6.2325    0.0000 H   0  0  0  0  0  0  0  0  0  0  0  0
    2.3291   -7.0794    0.0000 H   0  0  0  0  0  0  0  0  0  0  0  0
    3.1760   -7.3064    0.0000 H   0  0  0  0  0  0  0  0  0  0  0  0
    4.2881   -7.3064    0.0000 H   0  0  0  0  0  0  0  0  0  0  0  0
    5.1350   -7.0794    0.0000 H   0  0  0  0  0  0  0  0  0  0  0  0
    4.9081   -6.2325    0.0000 H   0  0  0  0  0  0  0  0  0  0  0  0
    1.6900   -4.7325    0.0000 H   0  0  0  0  0  0  0  0  0  0  0  0
    1.4631   -5.5794    0.0000 H   0  0  0  0  0  0  0  0  0  0  0  0
    2.3100   -5.8064    0.0000 H   0  0  0  0  0  0  0  0  0  0  0  0
    3.4860   -3.7694    0.0000 H   0  0  0  0  0  0  0  0  0  0  0  0
    2.8660   -3.1494    0.0000 H   0  0  0  0  0  0  0  0  0  0  0  0
    2.2460   -3.7694    0.0000 H   0  0  0  0  0  0  0  0  0  0  0  0
    9.1403    2.1480    0.0000 H   0  0  0  0  0  0  0  0  0  0  0  0
    9.5388    2.8382    0.0000 H   0  0  0  0  0  0  0  0  0  0  0  0
    5.1541   -5.8064    0.0000 H   0  0  0  0  0  0  0  0  0  0  0  0
    6.0010   -5.5794    0.0000 H   0  0  0  0  0  0  0  0  0  0  0  0
    5.7741   -4.7325    0.0000 H   0  0  0  0  0  0  0  0  0  0  0  0
    9.3590    7.3860    0.0000 H   0  0  0  0  0  0  0  0  0  0  0  0
    8.6878    6.8983    0.0000 H   0  0  0  0  0  0  0  0  0  0  0  0
   10.9007    6.8983    0.0000 H   0  0  0  0  0  0  0  0  0  0  0  0
   10.2294    7.3860    0.0000 H   0  0  0  0  0  0  0  0  0  0  0  0
  1  2  1  0  0  0  0
  1  7  1  0  0  0  0
  1 24  1  0  0  0  0
  2 18  1  0  0  0  0
  3  8  1  0  0  0  0
  3 25  1  0  0  0  0
  4 25  2  0  0  0  0
  5 28  2  0  0  0  0
  6 29  2  0  0  0  0
  7 13  1  0  0  0  0
  7 14  1  0  0  0  0
  8 28  1  0  0  0  0
  8 29  1  0  0  0  0
  9 10  1  0  0  0  0
  9 11  1  0  0  0  0
  9 30  1  0  0  0  0
  9 31  1  0  0  0  0
 10 12  1  0  0  0  0
 10 32  1  0  0  0  0
 10 33  1  0  0  0  0
 11 15  1  0  0  0  0
 11 34  1  0  0  0  0
 11 35  1  0  0  0  0
 12 16  1  0  0  0  0
 12 36  1  0  0  0  0
 12 37  1  0  0  0  0
 13 19  1  0  0  0  0
 13 20  1  0  0  0  0
 13 38  1  0  0  0  0
 14 21  1  0  0  0  0
 14 22  1  0  0  0  0
 14 39  1  0  0  0  0
 15 17  1  0  0  0  0
 15 40  1  0  0  0  0
 15 41  1  0  0  0  0
 16 18  1  0  0  0  0
 16 42  1  0  0  0  0
 16 43  1  0  0  0  0
 17 23  1  0  0  0  0
 17 44  1  0  0  0  0
 17 45  1  0  0  0  0
 18 46  1  0  0  0  0
 18 47  1  0  0  0  0
 19 48  1  0  0  0  0
 19 49  1  0  0  0  0
 19 50  1  0  0  0  0
 20 51  1  0  0  0  0
 20 52  1  0  0  0  0
 20 53  1  0  0  0  0
 21 54  1  0  0  0  0
 21 55  1  0  0  0  0
 21 56  1  0  0  0  0
 22 57  1  0  0  0  0
 22 58  1  0  0  0  0
 22 59  1  0  0  0  0
 23 25  1  0  0  0  0
 23 60  1  0  0  0  0
 23 61  1  0  0  0  0
 24 62  1  0  0  0  0
 24 63  1  0  0  0  0
 24 64  1  0  0  0  0
 26 27  1  0  0  0  0
 26 28  1  0  0  0  0
 26 65  1  0  0  0  0
 26 66  1  0  0  0  0
 27 29  1  0  0  0  0
 27 67  1  0  0  0  0
 27 68  1  0  0  0  0
M  END
> <PUBCHEM_COMPOUND_CID>
10137562

> <PUBCHEM_COMPOUND_CANONICALIZED>
1

> <PUBCHEM_CACTVS_COMPLEXITY>
503

> <PUBCHEM_CACTVS_HBOND_ACCEPTOR>
6

> <PUBCHEM_CACTVS_HBOND_DONOR>
0

> <PUBCHEM_CACTVS_ROTATABLE_BOND>
16

> <PUBCHEM_CACTVS_SUBSKEYS>
AAADcfB7OAIAAAAAAAAAAAAAAAAAAWAAAAAAAAAAAAAAAAAAAAAAHggEgCAACCjhgAYCCAIQAQAIAAGQGAAAAAAAAAAgAAEIAAAAABIAgAAEAAAEBCCAAAGNyKCAAAAAAAAAAAAAAAAAAAAAAAAAAAAAAA==

> <PUBCHEM_IUPAC_OPENEYE_NAME>
(2,5-dioxopyrrolidin-1-yl) 10-[(diisopropylamino)-methyl-phosphanyl]oxydecanoate

> <PUBCHEM_IUPAC_CAS_NAME>
10-[[di(propan-2-yl)amino]-methylphosphino]oxydecanoic acid (2,5-dioxo-1-pyrrolidinyl) ester

> <PUBCHEM_IUPAC_NAME_MARKUP>
(2,5-dioxopyrrolidin-1-yl) 10-[[di(propan-2-yl)amino]-methylphosphanyl]oxydecanoate

> <PUBCHEM_IUPAC_NAME>
(2,5-dioxopyrrolidin-1-yl) 10-[[di(propan-2-yl)amino]-methylphosphanyl]oxydecanoate

> <PUBCHEM_IUPAC_SYSTEMATIC_NAME>
[2,5-bis(oxidanylidene)pyrrolidin-1-yl] 10-[[di(propan-2-yl)amino]-methyl-phosphanyl]oxydecanoate

> <PUBCHEM_IUPAC_TRADITIONAL_NAME>
10-[(diisopropylamino)-methyl-phosphino]oxycapric acid succinimido ester

> <PUBCHEM_IUPAC_INCHI>
InChI=1S/C21H39N2O5P/c1-17(2)23(18(3)4)29(5)27-16-12-10-8-6-7-9-11-13-21(26)28-22-19(24)14-15-20(22)25/h17-18H,6-16H2,1-5H3

> <PUBCHEM_IUPAC_INCHIKEY>
OSWGVDDOCRQYMG-UHFFFAOYSA-N

> <PUBCHEM_XLOGP3_AA>
4

> <PUBCHEM_EXACT_MASS>
430.25965935

> <PUBCHEM_MOLECULAR_FORMULA>
C21H39N2O5P

> <PUBCHEM_MOLECULAR_WEIGHT>
430.5

> <PUBCHEM_OPENEYE_CAN_SMILES>
CC(C)N(C(C)C)P(C)OCCCCCCCCCC(=O)ON1C(=O)CCC1=O

> <PUBCHEM_OPENEYE_ISO_SMILES>
CC(C)N(C(C)C)P(C)OCCCCCCCCCC(=O)ON1C(=O)CCC1=O

> <PUBCHEM_CACTVS_TPSA>
76.2

> <PUBCHEM_MONOISOTOPIC_WEIGHT>
430.25965935

> <PUBCHEM_TOTAL_CHARGE>
0

> <PUBCHEM_HEAVY_ATOM_COUNT>
29

> <PUBCHEM_ATOM_DEF_STEREO_COUNT>
0

> <PUBCHEM_ATOM_UDEF_STEREO_COUNT>
1

> <PUBCHEM_BOND_DEF_STEREO_COUNT>
0

> <PUBCHEM_BOND_UDEF_STEREO_COUNT>
0

> <PUBCHEM_ISOTOPIC_ATOM_COUNT>
0

> <PUBCHEM_COMPONENT_COUNT>
1

> <PUBCHEM_CACTVS_TAUTO_COUNT>
-1

> <PUBCHEM_COORDINATE_TYPE>
1
5
255

> <PUBCHEM_BONDANNOTATIONS>
1  24  3

$$$$
