 
  -OEChem-10192103302D

 78 77  0     1  0  0  0  0  0999 V2000
    6.7671    7.7355    0.0000 O   0  0  0  0  0  0  0  0  0  0  0  0
    4.2690    6.3607    0.0000 O   0  0  0  0  0  0  0  0  0  0  0  0
    7.7331    5.3607    0.0000 O   0  0  0  0  0  0  0  0  0  0  0  0
    7.5098    6.6267    0.0000 O   0  0  0  0  0  0  0  0  0  0  0  0
    4.5010    7.9588    0.0000 O   0  0  0  0  0  0  0  0  0  0  0  0
    2.5369    5.3607    0.0000 O   0  0  0  0  0  0  0  0  0  0  0  0
    6.0010    5.3607    0.0000 C   0  0  0  0  0  0  0  0  0  0  0  0
    6.5010    4.4947    0.0000 C   0  0  0  0  0  0  0  0  0  0  0  0
    5.5010    6.2267    0.0000 C   0  0  0  0  0  0  0  0  0  0  0  0
    5.1350    4.8607    0.0000 C   0  0  0  0  0  0  0  0  0  0  0  0
    6.0010    3.6286    0.0000 C   0  0  0  0  0  0  0  0  0  0  0  0
    6.0010    7.0928    0.0000 C   0  0  3  0  0  0  0  0  0  0  0  0
    4.2690    5.3607    0.0000 C   0  0  3  0  0  0  0  0  0  0  0  0
    6.5010    2.7626    0.0000 C   0  0  0  0  0  0  0  0  0  0  0  0
    6.8671    5.8607    0.0000 C   0  0  0  0  0  0  0  0  0  0  0  0
    6.0010    1.8966    0.0000 C   0  0  0  0  0  0  0  0  0  0  0  0
    6.5010    1.0306    0.0000 C   0  0  0  0  0  0  0  0  0  0  0  0
    5.5010    7.9588    0.0000 C   0  0  0  0  0  0  0  0  0  0  0  0
    3.4030    4.8607    0.0000 C   0  0  0  0  0  0  0  0  0  0  0  0
    6.0010    0.1645    0.0000 C   0  0  0  0  0  0  0  0  0  0  0  0
    6.5010   -0.7015    0.0000 C   0  0  0  0  0  0  0  0  0  0  0  0
    6.0010   -1.5675    0.0000 C   0  0  0  0  0  0  0  0  0  0  0  0
    6.5010   -2.4335    0.0000 C   0  0  0  0  0  0  0  0  0  0  0  0
    6.0010   -3.2996    0.0000 C   0  0  0  0  0  0  0  0  0  0  0  0
    6.5010   -4.1656    0.0000 C   0  0  0  0  0  0  0  0  0  0  0  0
    6.0010   -5.0316    0.0000 C   0  0  0  0  0  0  0  0  0  0  0  0
    6.5010   -5.8976    0.0000 C   0  0  0  0  0  0  0  0  0  0  0  0
    6.0010   -6.7637    0.0000 C   0  0  0  0  0  0  0  0  0  0  0  0
    6.5010   -7.6297    0.0000 C   0  0  0  0  0  0  0  0  0  0  0  0
    6.0010   -8.4957    0.0000 C   0  0  0  0  0  0  0  0  0  0  0  0
    6.9760    4.0961    0.0000 H   0  0  0  0  0  0  0  0  0  0  0  0
    6.9760    4.8932    0.0000 H   0  0  0  0  0  0  0  0  0  0  0  0
    5.0261    6.6252    0.0000 H   0  0  0  0  0  0  0  0  0  0  0  0
    5.0261    5.8282    0.0000 H   0  0  0  0  0  0  0  0  0  0  0  0
    4.7365    4.3858    0.0000 H   0  0  0  0  0  0  0  0  0  0  0  0
    5.5335    4.3858    0.0000 H   0  0  0  0  0  0  0  0  0  0  0  0
    5.5261    4.0272    0.0000 H   0  0  0  0  0  0  0  0  0  0  0  0
    5.5261    3.2301    0.0000 H   0  0  0  0  0  0  0  0  0  0  0  0
    6.4760    6.6942    0.0000 H   0  0  0  0  0  0  0  0  0  0  0  0
    4.8059    5.6707    0.0000 H   0  0  0  0  0  0  0  0  0  0  0  0
    6.9760    2.3641    0.0000 H   0  0  0  0  0  0  0  0  0  0  0  0
    6.9760    3.1612    0.0000 H   0  0  0  0  0  0  0  0  0  0  0  0
    5.5261    2.2951    0.0000 H   0  0  0  0  0  0  0  0  0  0  0  0
    5.5261    1.4981    0.0000 H   0  0  0  0  0  0  0  0  0  0  0  0
    6.9760    0.6320    0.0000 H   0  0  0  0  0  0  0  0  0  0  0  0
    6.9760    1.4291    0.0000 H   0  0  0  0  0  0  0  0  0  0  0  0
    6.0836    8.1708    0.0000 H   0  0  0  0  0  0  0  0  0  0  0  0
    5.3934    8.5694    0.0000 H   0  0  0  0  0  0  0  0  0  0  0  0
    3.0044    4.3858    0.0000 H   0  0  0  0  0  0  0  0  0  0  0  0
    3.8015    4.3858    0.0000 H   0  0  0  0  0  0  0  0  0  0  0  0
    5.5261    0.5631    0.0000 H   0  0  0  0  0  0  0  0  0  0  0  0
    5.5261   -0.2340    0.0000 H   0  0  0  0  0  0  0  0  0  0  0  0
    6.9760   -1.1000    0.0000 H   0  0  0  0  0  0  0  0  0  0  0  0
    6.9760   -0.3030    0.0000 H   0  0  0  0  0  0  0  0  0  0  0  0
    5.5261   -1.1690    0.0000 H   0  0  0  0  0  0  0  0  0  0  0  0
    5.5261   -1.9660    0.0000 H   0  0  0  0  0  0  0  0  0  0  0  0
    6.9760   -2.8321    0.0000 H   0  0  0  0  0  0  0  0  0  0  0  0
    6.9760   -2.0350    0.0000 H   0  0  0  0  0  0  0  0  0  0  0  0
    6.6594    8.3461    0.0000 H   0  0  0  0  0  0  0  0  0  0  0  0
    3.7320    6.6707    0.0000 H   0  0  0  0  0  0  0  0  0  0  0  0
    8.2700    5.6707    0.0000 H   0  0  0  0  0  0  0  0  0  0  0  0
    5.5261   -2.9010    0.0000 H   0  0  0  0  0  0  0  0  0  0  0  0
    5.5261   -3.6981    0.0000 H   0  0  0  0  0  0  0  0  0  0  0  0
    6.9760   -4.5641    0.0000 H   0  0  0  0  0  0  0  0  0  0  0  0
    6.9760   -3.7670    0.0000 H   0  0  0  0  0  0  0  0  0  0  0  0
    5.5261   -4.6331    0.0000 H   0  0  0  0  0  0  0  0  0  0  0  0
    5.5261   -5.4301    0.0000 H   0  0  0  0  0  0  0  0  0  0  0  0
    4.1910    8.4957    0.0000 H   0  0  0  0  0  0  0  0  0  0  0  0
    2.0000    5.0507    0.0000 H   0  0  0  0  0  0  0  0  0  0  0  0
    6.9760   -6.2962    0.0000 H   0  0  0  0  0  0  0  0  0  0  0  0
    6.9760   -5.4991    0.0000 H   0  0  0  0  0  0  0  0  0  0  0  0
    5.5261   -6.3651    0.0000 H   0  0  0  0  0  0  0  0  0  0  0  0
    5.5261   -7.1622    0.0000 H   0  0  0  0  0  0  0  0  0  0  0  0
    6.9760   -8.0282    0.0000 H   0  0  0  0  0  0  0  0  0  0  0  0
    6.9760   -7.2312    0.0000 H   0  0  0  0  0  0  0  0  0  0  0  0
    5.4641   -8.1857    0.0000 H   0  0  0  0  0  0  0  0  0  0  0  0
    5.6910   -9.0326    0.0000 H   0  0  0  0  0  0  0  0  0  0  0  0
    6.5380   -8.8057    0.0000 H   0  0  0  0  0  0  0  0  0  0  0  0
  1 12  1  0  0  0  0
  1 59  1  0  0  0  0
  2 13  1  0  0  0  0
  2 60  1  0  0  0  0
  3 15  1  0  0  0  0
  3 61  1  0  0  0  0
  4 15  2  0  0  0  0
  5 18  1  0  0  0  0
  5 68  1  0  0  0  0
  6 19  1  0  0  0  0
  6 69  1  0  0  0  0
  7  8  1  0  0  0  0
  7  9  1  0  0  0  0
  7 10  1  0  0  0  0
  7 15  1  0  0  0  0
  8 11  1  0  0  0  0
  8 31  1  0  0  0  0
  8 32  1  0  0  0  0
  9 12  1  0  0  0  0
  9 33  1  0  0  0  0
  9 34  1  0  0  0  0
 10 13  1  0  0  0  0
 10 35  1  0  0  0  0
 10 36  1  0  0  0  0
 11 14  1  0  0  0  0
 11 37  1  0  0  0  0
 11 38  1  0  0  0  0
 12 18  1  0  0  0  0
 12 39  1  0  0  0  0
 13 19  1  0  0  0  0
 13 40  1  0  0  0  0
 14 16  1  0  0  0  0
 14 41  1  0  0  0  0
 14 42  1  0  0  0  0
 16 17  1  0  0  0  0
 16 43  1  0  0  0  0
 16 44  1  0  0  0  0
 17 20  1  0  0  0  0
 17 45  1  0  0  0  0
 17 46  1  0  0  0  0
 18 47  1  0  0  0  0
 18 48  1  0  0  0  0
 19 49  1  0  0  0  0
 19 50  1  0  0  0  0
 20 21  1  0  0  0  0
 20 51  1  0  0  0  0
 20 52  1  0  0  0  0
 21 22  1  0  0  0  0
 21 53  1  0  0  0  0
 21 54  1  0  0  0  0
 22 23  1  0  0  0  0
 22 55  1  0  0  0  0
 22 56  1  0  0  0  0
 23 24  1  0  0  0  0
 23 57  1  0  0  0  0
 23 58  1  0  0  0  0
 24 25  1  0  0  0  0
 24 62  1  0  0  0  0
 24 63  1  0  0  0  0
 25 26  1  0  0  0  0
 25 64  1  0  0  0  0
 25 65  1  0  0  0  0
 26 27  1  0  0  0  0
 26 66  1  0  0  0  0
 26 67  1  0  0  0  0
 27 28  1  0  0  0  0
 27 70  1  0  0  0  0
 27 71  1  0  0  0  0
 28 29  1  0  0  0  0
 28 72  1  0  0  0  0
 28 73  1  0  0  0  0
 29 30  1  0  0  0  0
 29 74  1  0  0  0  0
 29 75  1  0  0  0  0
 30 76  1  0  0  0  0
 30 77  1  0  0  0  0
 30 78  1  0  0  0  0
M  END
> <PUBCHEM_COMPOUND_CID>
19371203

> <PUBCHEM_COMPOUND_CANONICALIZED>
1

> <PUBCHEM_CACTVS_COMPLEXITY>
389

> <PUBCHEM_CACTVS_HBOND_ACCEPTOR>
6

> <PUBCHEM_CACTVS_HBOND_DONOR>
5

> <PUBCHEM_CACTVS_ROTATABLE_BOND>
22

> <PUBCHEM_CACTVS_SUBSKEYS>
AAADcfB4OAAAAAAAAAAAAAAAAAAAAAAAAAAAAAAAAAAAAAAAAAAAGgAACAAADhSggAICCAAAAgAIAACQCAAAAAAAAAAAAAEAAAABEBIAAAAAQAAEAAABAAHK7OSPAAAAAAAAAAAAAAAAAAAAAAAAAAAAAA==

> <PUBCHEM_IUPAC_OPENEYE_NAME>
2,2-bis(2,3-dihydroxypropyl)octadecanoic acid

> <PUBCHEM_IUPAC_CAS_NAME>
2,2-bis(2,3-dihydroxypropyl)octadecanoic acid

> <PUBCHEM_IUPAC_NAME_MARKUP>
2,2-bis(2,3-dihydroxypropyl)octadecanoic acid

> <PUBCHEM_IUPAC_NAME>
2,2-bis(2,3-dihydroxypropyl)octadecanoic acid

> <PUBCHEM_IUPAC_SYSTEMATIC_NAME>
2,2-bis[2,3-bis(oxidanyl)propyl]octadecanoic acid

> <PUBCHEM_IUPAC_TRADITIONAL_NAME>
2,2-diglycerylstearic acid

> <PUBCHEM_IUPAC_INCHI>
InChI=1S/C24H48O6/c1-2-3-4-5-6-7-8-9-10-11-12-13-14-15-16-24(23(29)30,17-21(27)19-25)18-22(28)20-26/h21-22,25-28H,2-20H2,1H3,(H,29,30)

> <PUBCHEM_IUPAC_INCHIKEY>
BKTHBMAUSMGLFB-UHFFFAOYSA-N

> <PUBCHEM_XLOGP3_AA>
6.2

> <PUBCHEM_EXACT_MASS>
432.34508925

> <PUBCHEM_MOLECULAR_FORMULA>
C24H48O6

> <PUBCHEM_MOLECULAR_WEIGHT>
432.6

> <PUBCHEM_OPENEYE_CAN_SMILES>
CCCCCCCCCCCCCCCCC(CC(CO)O)(CC(CO)O)C(=O)O

> <PUBCHEM_OPENEYE_ISO_SMILES>
CCCCCCCCCCCCCCCCC(CC(CO)O)(CC(CO)O)C(=O)O

> <PUBCHEM_CACTVS_TPSA>
118

> <PUBCHEM_MONOISOTOPIC_WEIGHT>
432.34508925

> <PUBCHEM_TOTAL_CHARGE>
0

> <PUBCHEM_HEAVY_ATOM_COUNT>
30

> <PUBCHEM_ATOM_DEF_STEREO_COUNT>
0

> <PUBCHEM_ATOM_UDEF_STEREO_COUNT>
2

> <PUBCHEM_BOND_DEF_STEREO_COUNT>
0

> <PUBCHEM_BOND_UDEF_STEREO_COUNT>
0

> <PUBCHEM_ISOTOPIC_ATOM_COUNT>
0

> <PUBCHEM_COMPONENT_COUNT>
1

> <PUBCHEM_CACTVS_TAUTO_COUNT>
-1

> <PUBCHEM_COORDINATE_TYPE>
1
5
255

> <PUBCHEM_BONDANNOTATIONS>
12  1  3
13  2  3

$$$$
