 
  -OEChem-10192103492D

 64 63  0     1  0  0  0  0  0999 V2000
   11.1972    2.7500    0.0000 O   0  0  0  0  0  0  0  0  0  0  0  0
   14.6613    1.7500    0.0000 O   0  0  0  0  0  0  0  0  0  0  0  0
    8.5991    0.2500    0.0000 O   0  0  0  0  0  0  0  0  0  0  0  0
    6.8671    3.2500    0.0000 O   0  0  0  0  0  0  0  0  0  0  0  0
   13.7953    3.2500    0.0000 O   0  0  0  0  0  0  0  0  0  0  0  0
   12.0632    3.2500    0.0000 O   0  0  0  0  0  0  0  0  0  0  0  0
    6.0010    2.7500    0.0000 O   0  0  0  0  0  0  0  0  0  0  0  0
    2.5369    1.7500    0.0000 O   0  0  0  0  0  0  0  0  0  0  0  0
    3.4030    0.2500    0.0000 O   0  0  0  0  0  0  0  0  0  0  0  0
    9.4651    1.7500    0.0000 N   0  0  0  0  0  0  0  0  0  0  0  0
   12.0632    1.2500    0.0000 N   0  0  0  0  0  0  0  0  0  0  0  0
    6.8671    1.2500    0.0000 N   0  0  0  0  0  0  0  0  0  0  0  0
    8.5991   -1.7500    0.0000 N   0  0  0  0  0  0  0  0  0  0  0  0
    5.1350    0.2500    0.0000 N   0  0  0  0  0  0  0  0  0  0  0  0
    7.7331   -3.2500    0.0000 N   0  0  0  0  0  0  0  0  0  0  0  0
    9.4651   -3.2500    0.0000 N   0  0  0  0  0  0  0  0  0  0  0  0
   10.3312    1.2500    0.0000 C   0  0  3  0  0  0  0  0  0  0  0  0
   10.3312    0.2500    0.0000 C   0  0  0  0  0  0  0  0  0  0  0  0
    9.4651   -0.2500    0.0000 C   0  0  0  0  0  0  0  0  0  0  0  0
   11.1972    1.7500    0.0000 C   0  0  0  0  0  0  0  0  0  0  0  0
   12.9292    1.7500    0.0000 C   0  0  3  0  0  0  0  0  0  0  0  0
    7.7331    1.7500    0.0000 C   0  0  3  0  0  0  0  0  0  0  0  0
    8.5991    1.2500    0.0000 C   0  0  0  0  0  0  0  0  0  0  0  0
   13.7953    1.2500    0.0000 C   0  0  3  0  0  0  0  0  0  0  0  0
    9.4651   -1.2500    0.0000 C   0  0  0  0  0  0  0  0  0  0  0  0
    7.7331    2.7500    0.0000 C   0  0  0  0  0  0  0  0  0  0  0  0
   13.7953    0.2500    0.0000 C   0  0  0  0  0  0  0  0  0  0  0  0
   12.9292    2.7500    0.0000 C   0  0  0  0  0  0  0  0  0  0  0  0
    5.1350    1.2500    0.0000 C   0  0  3  0  0  0  0  0  0  0  0  0
    6.0010    1.7500    0.0000 C   0  0  0  0  0  0  0  0  0  0  0  0
    4.2690    1.7500    0.0000 C   0  0  0  0  0  0  0  0  0  0  0  0
    8.5991   -2.7500    0.0000 C   0  0  0  0  0  0  0  0  0  0  0  0
    3.4030    1.2500    0.0000 C   0  0  0  0  0  0  0  0  0  0  0  0
    9.7942    0.9400    0.0000 H   0  0  0  0  0  0  0  0  0  0  0  0
   10.5432   -0.3326    0.0000 H   0  0  0  0  0  0  0  0  0  0  0  0
   10.9417    0.3577    0.0000 H   0  0  0  0  0  0  0  0  0  0  0  0
    9.2531    0.3326    0.0000 H   0  0  0  0  0  0  0  0  0  0  0  0
    8.8546   -0.3577    0.0000 H   0  0  0  0  0  0  0  0  0  0  0  0
    9.4651    2.3700    0.0000 H   0  0  0  0  0  0  0  0  0  0  0  0
   12.3923    2.0600    0.0000 H   0  0  0  0  0  0  0  0  0  0  0  0
    7.7331    1.1300    0.0000 H   0  0  0  0  0  0  0  0  0  0  0  0
   12.0632    0.6300    0.0000 H   0  0  0  0  0  0  0  0  0  0  0  0
   14.3322    0.9400    0.0000 H   0  0  0  0  0  0  0  0  0  0  0  0
    9.6772   -1.8326    0.0000 H   0  0  0  0  0  0  0  0  0  0  0  0
   10.0757   -1.1423    0.0000 H   0  0  0  0  0  0  0  0  0  0  0  0
    8.3437    2.6423    0.0000 H   0  0  0  0  0  0  0  0  0  0  0  0
    7.9451    3.3326    0.0000 H   0  0  0  0  0  0  0  0  0  0  0  0
    6.8671    0.6300    0.0000 H   0  0  0  0  0  0  0  0  0  0  0  0
   13.1753    0.2500    0.0000 H   0  0  0  0  0  0  0  0  0  0  0  0
   13.7953   -0.3700    0.0000 H   0  0  0  0  0  0  0  0  0  0  0  0
   14.4153    0.2500    0.0000 H   0  0  0  0  0  0  0  0  0  0  0  0
    5.6720    0.9400    0.0000 H   0  0  0  0  0  0  0  0  0  0  0  0
    4.6675    2.2250    0.0000 H   0  0  0  0  0  0  0  0  0  0  0  0
    3.8705    2.2250    0.0000 H   0  0  0  0  0  0  0  0  0  0  0  0
   15.1982    1.4400    0.0000 H   0  0  0  0  0  0  0  0  0  0  0  0
    6.8671    3.8700    0.0000 H   0  0  0  0  0  0  0  0  0  0  0  0
    4.5981   -0.0600    0.0000 H   0  0  0  0  0  0  0  0  0  0  0  0
    5.6720   -0.0600    0.0000 H   0  0  0  0  0  0  0  0  0  0  0  0
   13.7953    3.8700    0.0000 H   0  0  0  0  0  0  0  0  0  0  0  0
    7.7331   -3.8700    0.0000 H   0  0  0  0  0  0  0  0  0  0  0  0
    7.1962   -2.9400    0.0000 H   0  0  0  0  0  0  0  0  0  0  0  0
    9.4651   -3.8700    0.0000 H   0  0  0  0  0  0  0  0  0  0  0  0
   10.0021   -2.9400    0.0000 H   0  0  0  0  0  0  0  0  0  0  0  0
    2.0000    1.4400    0.0000 H   0  0  0  0  0  0  0  0  0  0  0  0
  1 20  2  0  0  0  0
  2 24  1  0  0  0  0
  2 55  1  0  0  0  0
  3 23  2  0  0  0  0
  4 26  1  0  0  0  0
  4 56  1  0  0  0  0
  5 28  1  0  0  0  0
  5 59  1  0  0  0  0
  6 28  2  0  0  0  0
  7 30  2  0  0  0  0
  8 33  1  0  0  0  0
  8 64  1  0  0  0  0
  9 33  2  0  0  0  0
 10 17  1  0  0  0  0
 10 23  1  0  0  0  0
 10 39  1  0  0  0  0
 11 20  1  0  0  0  0
 11 21  1  0  0  0  0
 11 42  1  0  0  0  0
 12 22  1  0  0  0  0
 12 30  1  0  0  0  0
 12 48  1  0  0  0  0
 13 25  1  0  0  0  0
 13 32  2  0  0  0  0
 14 29  1  0  0  0  0
 14 57  1  0  0  0  0
 14 58  1  0  0  0  0
 15 32  1  0  0  0  0
 15 60  1  0  0  0  0
 15 61  1  0  0  0  0
 16 32  1  0  0  0  0
 16 62  1  0  0  0  0
 16 63  1  0  0  0  0
 17 18  1  0  0  0  0
 17 20  1  0  0  0  0
 17 34  1  0  0  0  0
 18 19  1  0  0  0  0
 18 35  1  0  0  0  0
 18 36  1  0  0  0  0
 19 25  1  0  0  0  0
 19 37  1  0  0  0  0
 19 38  1  0  0  0  0
 21 24  1  0  0  0  0
 21 28  1  0  0  0  0
 21 40  1  0  0  0  0
 22 23  1  0  0  0  0
 22 26  1  0  0  0  0
 22 41  1  0  0  0  0
 24 27  1  0  0  0  0
 24 43  1  0  0  0  0
 25 44  1  0  0  0  0
 25 45  1  0  0  0  0
 26 46  1  0  0  0  0
 26 47  1  0  0  0  0
 27 49  1  0  0  0  0
 27 50  1  0  0  0  0
 27 51  1  0  0  0  0
 29 30  1  0  0  0  0
 29 31  1  0  0  0  0
 29 52  1  0  0  0  0
 31 33  1  0  0  0  0
 31 53  1  0  0  0  0
 31 54  1  0  0  0  0
M  END
> <PUBCHEM_COMPOUND_CID>
18252525

> <PUBCHEM_COMPOUND_CANONICALIZED>
1

> <PUBCHEM_CACTVS_COMPLEXITY>
742

> <PUBCHEM_CACTVS_HBOND_ACCEPTOR>
11

> <PUBCHEM_CACTVS_HBOND_DONOR>
10

> <PUBCHEM_CACTVS_ROTATABLE_BOND>
15

> <PUBCHEM_CACTVS_SUBSKEYS>
AAADceB7vAAAAAAAAAAAAAAAAAAAAAAAAAAAAAAAAAAAAAAAAAAAHgAQCAAACDzhgAYDCALAAgAoAAGQPAAAAAEAAAAAAIGIAAACUB4AgCAUQAAHNgCQAAA/AQAAAAAAAAAAAAAAAAAAAAAAAAAAAAAAAA==

> <PUBCHEM_IUPAC_OPENEYE_NAME>
3-amino-4-[[2-[[1-[(1-carboxy-2-hydroxy-propyl)carbamoyl]-4-guanidino-butyl]amino]-1-(hydroxymethyl)-2-oxo-ethyl]amino]-4-oxo-butanoic acid

> <PUBCHEM_IUPAC_CAS_NAME>
3-amino-4-[[1-[[1-[(1-carboxy-2-hydroxypropyl)amino]-5-(diaminomethylideneamino)-1-oxopentan-2-yl]amino]-3-hydroxy-1-oxopropan-2-yl]amino]-4-oxobutanoic acid

> <PUBCHEM_IUPAC_NAME_MARKUP>
3-amino-4-[[1-[[1-[(1-carboxy-2-hydroxypropyl)amino]-5-(diaminomethylideneamino)-1-oxopentan-2-yl]amino]-3-hydroxy-1-oxopropan-2-yl]amino]-4-oxobutanoic acid

> <PUBCHEM_IUPAC_NAME>
3-amino-4-[[1-[[1-[(1-carboxy-2-hydroxypropyl)amino]-5-(diaminomethylideneamino)-1-oxopentan-2-yl]amino]-3-hydroxy-1-oxopropan-2-yl]amino]-4-oxobutanoic acid

> <PUBCHEM_IUPAC_SYSTEMATIC_NAME>
3-azanyl-4-[[1-[[5-[bis(azanyl)methylideneamino]-1-[[1,3-bis(oxidanyl)-1-oxidanylidene-butan-2-yl]amino]-1-oxidanylidene-pentan-2-yl]amino]-3-oxidanyl-1-oxidanylidene-propan-2-yl]amino]-4-oxidanylidene-butanoic acid

> <PUBCHEM_IUPAC_TRADITIONAL_NAME>
3-amino-4-[[2-[[1-[(1-carboxy-2-hydroxy-propyl)carbamoyl]-4-guanidino-butyl]amino]-2-keto-1-methylol-ethyl]amino]-4-keto-butyric acid

> <PUBCHEM_IUPAC_INCHI>
InChI=1S/C17H31N7O9/c1-7(26)12(16(32)33)24-14(30)9(3-2-4-21-17(19)20)22-15(31)10(6-25)23-13(29)8(18)5-11(27)28/h7-10,12,25-26H,2-6,18H2,1H3,(H,22,31)(H,23,29)(H,24,30)(H,27,28)(H,32,33)(H4,19,20,21)

> <PUBCHEM_IUPAC_INCHIKEY>
QWIWATSHMMCNRS-UHFFFAOYSA-N

> <PUBCHEM_XLOGP3_AA>
-7.5

> <PUBCHEM_EXACT_MASS>
477.21832559

> <PUBCHEM_MOLECULAR_FORMULA>
C17H31N7O9

> <PUBCHEM_MOLECULAR_WEIGHT>
477.5

> <PUBCHEM_OPENEYE_CAN_SMILES>
CC(C(C(=O)O)NC(=O)C(CCCN=C(N)N)NC(=O)C(CO)NC(=O)C(CC(=O)O)N)O

> <PUBCHEM_OPENEYE_ISO_SMILES>
CC(C(C(=O)O)NC(=O)C(CCCN=C(N)N)NC(=O)C(CO)NC(=O)C(CC(=O)O)N)O

> <PUBCHEM_CACTVS_TPSA>
293

> <PUBCHEM_MONOISOTOPIC_WEIGHT>
477.21832559

> <PUBCHEM_TOTAL_CHARGE>
0

> <PUBCHEM_HEAVY_ATOM_COUNT>
33

> <PUBCHEM_ATOM_DEF_STEREO_COUNT>
0

> <PUBCHEM_ATOM_UDEF_STEREO_COUNT>
5

> <PUBCHEM_BOND_DEF_STEREO_COUNT>
0

> <PUBCHEM_BOND_UDEF_STEREO_COUNT>
0

> <PUBCHEM_ISOTOPIC_ATOM_COUNT>
0

> <PUBCHEM_COMPONENT_COUNT>
1

> <PUBCHEM_CACTVS_TAUTO_COUNT>
-1

> <PUBCHEM_COORDINATE_TYPE>
1
5
255

> <PUBCHEM_BONDANNOTATIONS>
29  14  3
17  18  3
24  2  3
21  28  3
22  26  3

$$$$
