 
  -OEChem-10192104402D

 75 80  0     1  0  0  0  0  0999 V2000
    5.5161    2.7692    0.0000 O   0  0  0  0  0  0  0  0  0  0  0  0
    2.9180    1.2692    0.0000 O   0  0  0  0  0  0  0  0  0  0  0  0
    3.7841    2.7692    0.0000 O   0  0  0  0  0  0  0  0  0  0  0  0
    7.2761    4.8039    0.0000 O   0  0  0  0  0  0  0  0  0  0  0  0
    3.8001   -1.2723    0.0000 O   0  0  0  0  0  0  0  0  0  0  0  0
    8.1821    3.2484    0.0000 O   0  0  0  0  0  0  0  0  0  0  0  0
    2.0000   -1.2792    0.0000 O   0  0  0  0  0  0  0  0  0  0  0  0
    5.5161    5.7692    0.0000 O   0  0  0  0  0  0  0  0  0  0  0  0
    5.5161   -0.2308    0.0000 O   0  0  0  0  0  0  0  0  0  0  0  0
    3.7841    4.7692    0.0000 O   0  0  0  0  0  0  0  0  0  0  0  0
    5.5161    1.7692    0.0000 O   0  0  0  0  0  0  0  0  0  0  0  0
    6.3821    4.2692    0.0000 C   0  0  2  0  0  0  0  0  0  0  0  0
    3.7841   -0.2308    0.0000 C   0  0  2  0  0  0  0  0  0  0  0  0
    6.3821    3.2692    0.0000 C   0  0  1  0  0  0  0  0  0  0  0  0
    2.9180    0.2692    0.0000 C   0  0  1  0  0  0  0  0  0  0  0  0
    5.5161    4.7692    0.0000 C   0  0  3  0  0  0  0  0  0  0  0  0
    4.6501    0.2692    0.0000 C   0  0  1  0  0  0  0  0  0  0  0  0
    4.6501    3.2692    0.0000 C   0  0  2  0  0  0  0  0  0  0  0  0
    4.6501    4.2692    0.0000 C   0  0  3  0  0  0  0  0  0  0  0  0
    3.7841    1.7692    0.0000 C   0  0  2  0  0  0  0  0  0  0  0  0
    4.6501    1.2692    0.0000 C   0  0  2  0  0  0  0  0  0  0  0  0
    7.2761    2.7345    0.0000 C   0  0  0  0  0  0  0  0  0  0  0  0
    2.0080   -0.2376    0.0000 C   0  0  0  0  0  0  0  0  0  0  0  0
    8.1821    4.2900    0.0000 C   0  0  3  0  0  0  0  0  0  0  0  0
    2.9021   -1.8000    0.0000 C   0  0  3  0  0  0  0  0  0  0  0  0
    9.0462    4.7934    0.0000 C   0  0  0  0  0  0  0  0  0  0  0  0
    2.9059   -2.8000    0.0000 C   0  0  0  0  0  0  0  0  0  0  0  0
    9.9142    4.2967    0.0000 C   0  0  0  0  0  0  0  0  0  0  0  0
    9.0424    5.7934    0.0000 C   0  0  0  0  0  0  0  0  0  0  0  0
    2.0418   -3.3034    0.0000 C   0  0  0  0  0  0  0  0  0  0  0  0
    3.7739   -3.2967    0.0000 C   0  0  0  0  0  0  0  0  0  0  0  0
   10.7783    4.8000    0.0000 C   0  0  0  0  0  0  0  0  0  0  0  0
    9.9065    6.2967    0.0000 C   0  0  0  0  0  0  0  0  0  0  0  0
    2.0457   -4.3034    0.0000 C   0  0  0  0  0  0  0  0  0  0  0  0
    3.7777   -4.2967    0.0000 C   0  0  0  0  0  0  0  0  0  0  0  0
   10.7744    5.8000    0.0000 C   0  0  0  0  0  0  0  0  0  0  0  0
    2.9136   -4.8000    0.0000 C   0  0  0  0  0  0  0  0  0  0  0  0
   11.6385    6.3034    0.0000 C   0  0  0  0  0  0  0  0  0  0  0  0
    2.9175   -5.8000    0.0000 C   0  0  0  0  0  0  0  0  0  0  0  0
   12.5065    5.8067    0.0000 C   0  0  0  0  0  0  0  0  0  0  0  0
    2.0534   -6.3034    0.0000 C   0  0  0  0  0  0  0  0  0  0  0  0
    7.1215    3.8499    0.0000 H   0  0  0  0  0  0  0  0  0  0  0  0
    4.5234   -0.6501    0.0000 H   0  0  0  0  0  0  0  0  0  0  0  0
    6.3756    2.4192    0.0000 H   0  0  0  0  0  0  0  0  0  0  0  0
    2.1852    0.6999    0.0000 H   0  0  0  0  0  0  0  0  0  0  0  0
    6.0530    5.0792    0.0000 H   0  0  0  0  0  0  0  0  0  0  0  0
    4.6501   -0.3508    0.0000 H   0  0  0  0  0  0  0  0  0  0  0  0
    4.6501    2.6492    0.0000 H   0  0  0  0  0  0  0  0  0  0  0  0
    4.6501    4.8892    0.0000 H   0  0  0  0  0  0  0  0  0  0  0  0
    3.2471    2.0792    0.0000 H   0  0  0  0  0  0  0  0  0  0  0  0
    5.1870    0.9592    0.0000 H   0  0  0  0  0  0  0  0  0  0  0  0
    6.8715    2.2648    0.0000 H   0  0  0  0  0  0  0  0  0  0  0  0
    7.6697    2.2555    0.0000 H   0  0  0  0  0  0  0  0  0  0  0  0
    1.8035    0.3476    0.0000 H   0  0  0  0  0  0  0  0  0  0  0  0
    1.3964   -0.3390    0.0000 H   0  0  0  0  0  0  0  0  0  0  0  0
    8.7197    3.9811    0.0000 H   0  0  0  0  0  0  0  0  0  0  0  0
    3.4408   -2.1070    0.0000 H   0  0  0  0  0  0  0  0  0  0  0  0
    4.9792    6.0792    0.0000 H   0  0  0  0  0  0  0  0  0  0  0  0
    6.0530    0.0792    0.0000 H   0  0  0  0  0  0  0  0  0  0  0  0
    3.2471    4.4592    0.0000 H   0  0  0  0  0  0  0  0  0  0  0  0
    6.0530    1.4592    0.0000 H   0  0  0  0  0  0  0  0  0  0  0  0
    9.9166    3.6767    0.0000 H   0  0  0  0  0  0  0  0  0  0  0  0
    8.5043    6.1013    0.0000 H   0  0  0  0  0  0  0  0  0  0  0  0
    1.5037   -2.9954    0.0000 H   0  0  0  0  0  0  0  0  0  0  0  0
    4.3096   -2.9846    0.0000 H   0  0  0  0  0  0  0  0  0  0  0  0
   11.3164    4.4921    0.0000 H   0  0  0  0  0  0  0  0  0  0  0  0
    9.9041    6.9167    0.0000 H   0  0  0  0  0  0  0  0  0  0  0  0
    1.5100   -4.6154    0.0000 H   0  0  0  0  0  0  0  0  0  0  0  0
    4.3159   -4.6046    0.0000 H   0  0  0  0  0  0  0  0  0  0  0  0
   11.6361    6.9234    0.0000 H   0  0  0  0  0  0  0  0  0  0  0  0
    3.4556   -6.1080    0.0000 H   0  0  0  0  0  0  0  0  0  0  0  0
   12.5088    5.1867    0.0000 H   0  0  0  0  0  0  0  0  0  0  0  0
   13.0422    6.1188    0.0000 H   0  0  0  0  0  0  0  0  0  0  0  0
    1.5153   -5.9954    0.0000 H   0  0  0  0  0  0  0  0  0  0  0  0
    2.0558   -6.9234    0.0000 H   0  0  0  0  0  0  0  0  0  0  0  0
  1 14  1  0  0  0  0
  1 18  1  0  0  0  0
  2 15  1  0  0  0  0
  2 20  1  0  0  0  0
 18  3  1  6  0  0  0
 20  3  1  6  0  0  0
  4 12  1  0  0  0  0
  4 24  1  0  0  0  0
  5 13  1  0  0  0  0
  5 25  1  0  0  0  0
  6 22  1  0  0  0  0
  6 24  1  0  0  0  0
  7 23  1  0  0  0  0
  7 25  1  0  0  0  0
  8 16  1  0  0  0  0
  8 58  1  0  0  0  0
 17  9  1  1  0  0  0
  9 59  1  0  0  0  0
 10 19  1  0  0  0  0
 10 60  1  0  0  0  0
 21 11  1  6  0  0  0
 11 61  1  0  0  0  0
 12 14  1  0  0  0  0
 12 16  1  0  0  0  0
 12 42  1  1  0  0  0
 13 15  1  0  0  0  0
 13 17  1  0  0  0  0
 13 43  1  1  0  0  0
 14 22  1  0  0  0  0
 14 44  1  6  0  0  0
 15 23  1  0  0  0  0
 15 45  1  6  0  0  0
 16 19  1  0  0  0  0
 16 46  1  0  0  0  0
 17 21  1  0  0  0  0
 17 47  1  0  0  0  0
 18 19  1  0  0  0  0
 18 48  1  0  0  0  0
 19 49  1  0  0  0  0
 20 21  1  0  0  0  0
 20 50  1  0  0  0  0
 21 51  1  0  0  0  0
 22 52  1  0  0  0  0
 22 53  1  0  0  0  0
 23 54  1  0  0  0  0
 23 55  1  0  0  0  0
 24 26  1  0  0  0  0
 24 56  1  0  0  0  0
 25 27  1  0  0  0  0
 25 57  1  0  0  0  0
 26 28  2  0  0  0  0
 26 29  1  0  0  0  0
 27 30  2  0  0  0  0
 27 31  1  0  0  0  0
 28 32  1  0  0  0  0
 28 62  1  0  0  0  0
 29 33  2  0  0  0  0
 29 63  1  0  0  0  0
 30 34  1  0  0  0  0
 30 64  1  0  0  0  0
 31 35  2  0  0  0  0
 31 65  1  0  0  0  0
 32 36  2  0  0  0  0
 32 66  1  0  0  0  0
 33 36  1  0  0  0  0
 33 67  1  0  0  0  0
 34 37  2  0  0  0  0
 34 68  1  0  0  0  0
 35 37  1  0  0  0  0
 35 69  1  0  0  0  0
 36 38  1  0  0  0  0
 37 39  1  0  0  0  0
 38 40  2  0  0  0  0
 38 70  1  0  0  0  0
 39 41  2  0  0  0  0
 39 71  1  0  0  0  0
 40 72  1  0  0  0  0
 40 73  1  0  0  0  0
 41 74  1  0  0  0  0
 41 75  1  0  0  0  0
M  END
> <PUBCHEM_COMPOUND_CID>
118888928

> <PUBCHEM_COMPOUND_CANONICALIZED>
1

> <PUBCHEM_CACTVS_COMPLEXITY>
818

> <PUBCHEM_CACTVS_HBOND_ACCEPTOR>
11

> <PUBCHEM_CACTVS_HBOND_DONOR>
4

> <PUBCHEM_CACTVS_ROTATABLE_BOND>
6

> <PUBCHEM_CACTVS_SUBSKEYS>
AAADcfB4PAAAAAAAAAAAAAAAAAAAAAAAAAA0aJEiAAAAAACRQAAAGgAACAAADBSwmAMwCIAABgCAAiBCAAACAAAgAAAIiAAACIgZNiKAMRiicAAlwAEPqAfA4DwOQAAAAAAAAACAAAAAAAAAAAAAAAAAAA==

> <PUBCHEM_IUPAC_OPENEYE_NAME>
(4aR,6R,8aS)-6-[[(4aR,6R,7R,8R,8aS)-7,8-dihydroxy-2-(4-vinylphenyl)-4,4a,6,7,8,8a-hexahydropyrano[3,2-d][1,3]dioxin-6-yl]oxy]-2-(4-vinylphenyl)-4,4a,6,7,8,8a-hexahydropyrano[3,2-d][1,3]dioxine-7,8-diol

> <PUBCHEM_IUPAC_CAS_NAME>
(4aR,6R,8aS)-6-[[(4aR,6R,7R,8R,8aS)-2-(4-ethenylphenyl)-7,8-dihydroxy-4,4a,6,7,8,8a-hexahydropyrano[3,2-d][1,3]dioxin-6-yl]oxy]-2-(4-ethenylphenyl)-4,4a,6,7,8,8a-hexahydropyrano[3,2-d][1,3]dioxin-7,8-diol

> <PUBCHEM_IUPAC_NAME_MARKUP>
(4<I>a</I><I>R</I>,6<I>R</I>,8<I>a</I><I>S</I>)-6-[[(4<I>a</I><I>R</I>,6<I>R</I>,7<I>R</I>,8<I>R</I>,8<I>a</I><I>S</I>)-2-(4-ethenylphenyl)-7,8-dihydroxy-4,4<I>a</I>,6,7,8,8<I>a</I>-hexahydropyrano[3,2-d][1,3]dioxin-6-yl]oxy]-2-(4-ethenylphenyl)-4,4<I>a</I>,6,7,8,8<I>a</I>-hexahydropyrano[3,2-d][1,3]dioxine-7,8-diol

> <PUBCHEM_IUPAC_NAME>
(4aR,6R,8aS)-6-[[(4aR,6R,7R,8R,8aS)-2-(4-ethenylphenyl)-7,8-dihydroxy-4,4a,6,7,8,8a-hexahydropyrano[3,2-d][1,3]dioxin-6-yl]oxy]-2-(4-ethenylphenyl)-4,4a,6,7,8,8a-hexahydropyrano[3,2-d][1,3]dioxine-7,8-diol

> <PUBCHEM_IUPAC_SYSTEMATIC_NAME>
(4aR,6R,8aS)-6-[[(4aR,6R,7R,8R,8aS)-2-(4-ethenylphenyl)-7,8-bis(oxidanyl)-4,4a,6,7,8,8a-hexahydropyrano[3,2-d][1,3]dioxin-6-yl]oxy]-2-(4-ethenylphenyl)-4,4a,6,7,8,8a-hexahydropyrano[3,2-d][1,3]dioxine-7,8-diol

> <PUBCHEM_IUPAC_TRADITIONAL_NAME>
(4aR,6R,8aS)-6-[[(4aR,6R,7R,8R,8aS)-7,8-dihydroxy-2-(4-vinylphenyl)-4,4a,6,7,8,8a-hexahydropyrano[3,2-d][1,3]dioxin-6-yl]oxy]-2-(4-vinylphenyl)-4,4a,6,7,8,8a-hexahydropyrano[3,2-d][1,3]dioxin-7,8-diol

> <PUBCHEM_IUPAC_INCHI>
InChI=1S/C30H34O11/c1-3-15-5-9-17(10-6-15)27-35-13-19-25(39-27)21(31)23(33)29(37-19)41-30-24(34)22(32)26-20(38-30)14-36-28(40-26)18-11-7-16(4-2)8-12-18/h3-12,19-34H,1-2,13-14H2/t19-,20-,21-,22?,23-,24?,25-,26-,27?,28?,29-,30-/m1/s1

> <PUBCHEM_IUPAC_INCHIKEY>
YSMIQZQARUOCNZ-SQDZKFKWSA-N

> <PUBCHEM_XLOGP3_AA>
1.2

> <PUBCHEM_EXACT_MASS>
570.21011190

> <PUBCHEM_MOLECULAR_FORMULA>
C30H34O11

> <PUBCHEM_MOLECULAR_WEIGHT>
570.6

> <PUBCHEM_OPENEYE_CAN_SMILES>
C=CC1=CC=C(C=C1)C2OCC3C(O2)C(C(C(O3)OC4C(C(C5C(O4)COC(O5)C6=CC=C(C=C6)C=C)O)O)O)O

> <PUBCHEM_OPENEYE_ISO_SMILES>
C=CC1=CC=C(C=C1)C2OC[C@@H]3[C@@H](O2)[C@@H]([C@H]([C@H](O3)O[C@@H]4C(C([C@H]5[C@H](O4)COC(O5)C6=CC=C(C=C6)C=C)O)O)O)O

> <PUBCHEM_CACTVS_TPSA>
146

> <PUBCHEM_MONOISOTOPIC_WEIGHT>
570.21011190

> <PUBCHEM_TOTAL_CHARGE>
0

> <PUBCHEM_HEAVY_ATOM_COUNT>
41

> <PUBCHEM_ATOM_DEF_STEREO_COUNT>
8

> <PUBCHEM_ATOM_UDEF_STEREO_COUNT>
4

> <PUBCHEM_BOND_DEF_STEREO_COUNT>
0

> <PUBCHEM_BOND_UDEF_STEREO_COUNT>
0

> <PUBCHEM_ISOTOPIC_ATOM_COUNT>
0

> <PUBCHEM_COMPONENT_COUNT>
1

> <PUBCHEM_CACTVS_TAUTO_COUNT>
-1

> <PUBCHEM_COORDINATE_TYPE>
1
5
255

> <PUBCHEM_BONDANNOTATIONS>
19  10  3
21  11  6
12  42  5
13  43  5
14  44  6
15  45  6
24  26  3
25  27  3
26  28  8
26  29  8
27  30  8
27  31  8
28  32  8
29  33  8
18  3  6
20  3  6
30  34  8
31  35  8
32  36  8
33  36  8
34  37  8
35  37  8
16  8  3
17  9  5

$$$$
