 
  -OEChem-10192103572D

106110  0     1  0  0  0  0  0999 V2000
   10.6603    1.0000    0.0000 O   0  0  0  0  0  0  0  0  0  0  0  0
   10.6603   -2.0000    0.0000 O   0  0  0  0  0  0  0  0  0  0  0  0
   12.3923   -1.0000    0.0000 O   0  0  0  0  0  0  0  0  0  0  0  0
    4.5981   -0.5000    0.0000 O   0  0  0  0  0  0  0  0  0  0  0  0
   12.3923    1.0000    0.0000 O   0  0  0  0  0  0  0  0  0  0  0  0
    8.9282    2.0000    0.0000 O   0  0  0  0  0  0  0  0  0  0  0  0
    6.3301   -2.5000    0.0000 O   0  0  0  0  0  0  0  0  0  0  0  0
    4.5981   -3.5000    0.0000 O   0  0  0  0  0  0  0  0  0  0  0  0
    2.8660   -2.5000    0.0000 O   0  0  0  0  0  0  0  0  0  0  0  0
    2.8660    0.5000    0.0000 O   0  0  0  0  0  0  0  0  0  0  0  0
    2.0000   -1.0000    0.0000 O   0  0  0  0  0  0  0  0  0  0  0  0
    9.7942   -0.5000    0.0000 C   0  0  3  0  0  0  0  0  0  0  0  0
   10.6603   -1.0000    0.0000 C   0  0  3  0  0  0  0  0  0  0  0  0
    9.7942    0.5000    0.0000 C   0  0  3  0  0  0  0  0  0  0  0  0
    8.9282   -1.0000    0.0000 C   0  0  0  0  0  0  0  0  0  0  0  0
   11.5263   -0.5000    0.0000 C   0  0  3  0  0  0  0  0  0  0  0  0
    8.0622   -0.5000    0.0000 C   0  0  0  0  0  0  0  0  0  0  0  0
   11.5263    0.5000    0.0000 C   0  0  3  0  0  0  0  0  0  0  0  0
    5.4641   -1.0000    0.0000 C   0  0  3  0  0  0  0  0  0  0  0  0
    7.1962   -1.0000    0.0000 C   0  0  0  0  0  0  0  0  0  0  0  0
    6.3301   -0.5000    0.0000 C   0  0  0  0  0  0  0  0  0  0  0  0
    5.4641   -2.0000    0.0000 C   0  0  3  0  0  0  0  0  0  0  0  0
    8.9282    1.0000    0.0000 C   0  0  0  0  0  0  0  0  0  0  0  0
    4.5981   -2.5000    0.0000 C   0  0  3  0  0  0  0  0  0  0  0  0
    3.7320   -2.0000    0.0000 C   0  0  3  0  0  0  0  0  0  0  0  0
    3.7320   -1.0000    0.0000 C   0  0  3  0  0  0  0  0  0  0  0  0
    9.7942   -2.5000    0.0000 C   0  0  0  0  0  0  0  0  0  0  0  0
   13.2583   -0.5000    0.0000 C   0  0  0  0  0  0  0  0  0  0  0  0
    2.8660   -0.5000    0.0000 C   0  0  0  0  0  0  0  0  0  0  0  0
   12.3923    2.0000    0.0000 C   0  0  0  0  0  0  0  0  0  0  0  0
    9.7942   -3.5000    0.0000 C   0  0  0  0  0  0  0  0  0  0  0  0
    8.0622    2.5000    0.0000 C   0  0  0  0  0  0  0  0  0  0  0  0
   14.1244   -1.0000    0.0000 C   0  0  0  0  0  0  0  0  0  0  0  0
    6.3301   -3.5000    0.0000 C   0  0  0  0  0  0  0  0  0  0  0  0
    5.4641   -4.0000    0.0000 C   0  0  0  0  0  0  0  0  0  0  0  0
    8.0622    3.5000    0.0000 C   0  0  0  0  0  0  0  0  0  0  0  0
    8.9282   -4.0000    0.0000 C   0  0  0  0  0  0  0  0  0  0  0  0
   10.6603   -4.0000    0.0000 C   0  0  0  0  0  0  0  0  0  0  0  0
   14.1244   -2.0000    0.0000 C   0  0  0  0  0  0  0  0  0  0  0  0
   14.9904   -0.5000    0.0000 C   0  0  0  0  0  0  0  0  0  0  0  0
    8.9282   -5.0000    0.0000 C   0  0  0  0  0  0  0  0  0  0  0  0
   10.6603   -5.0000    0.0000 C   0  0  0  0  0  0  0  0  0  0  0  0
    2.0000    1.0000    0.0000 C   0  0  0  0  0  0  0  0  0  0  0  0
    7.1962    4.0000    0.0000 C   0  0  0  0  0  0  0  0  0  0  0  0
    8.9282    4.0000    0.0000 C   0  0  0  0  0  0  0  0  0  0  0  0
   14.9904   -2.5000    0.0000 C   0  0  0  0  0  0  0  0  0  0  0  0
   15.8564   -1.0000    0.0000 C   0  0  0  0  0  0  0  0  0  0  0  0
    9.7942   -5.5000    0.0000 C   0  0  0  0  0  0  0  0  0  0  0  0
   15.8564   -2.0000    0.0000 C   0  0  0  0  0  0  0  0  0  0  0  0
    7.1962    5.0000    0.0000 C   0  0  0  0  0  0  0  0  0  0  0  0
    8.9282    5.0000    0.0000 C   0  0  0  0  0  0  0  0  0  0  0  0
    8.0622    5.5000    0.0000 C   0  0  0  0  0  0  0  0  0  0  0  0
    9.2573   -0.1900    0.0000 H   0  0  0  0  0  0  0  0  0  0  0  0
   10.1233   -1.3100    0.0000 H   0  0  0  0  0  0  0  0  0  0  0  0
    9.7942    1.1200    0.0000 H   0  0  0  0  0  0  0  0  0  0  0  0
    8.5297   -1.4750    0.0000 H   0  0  0  0  0  0  0  0  0  0  0  0
    9.3267   -1.4750    0.0000 H   0  0  0  0  0  0  0  0  0  0  0  0
   11.5263   -1.1200    0.0000 H   0  0  0  0  0  0  0  0  0  0  0  0
    8.4607   -0.0251    0.0000 H   0  0  0  0  0  0  0  0  0  0  0  0
    7.6636   -0.0251    0.0000 H   0  0  0  0  0  0  0  0  0  0  0  0
   11.5263    1.1200    0.0000 H   0  0  0  0  0  0  0  0  0  0  0  0
    5.4641   -0.3800    0.0000 H   0  0  0  0  0  0  0  0  0  0  0  0
    6.7976   -1.4750    0.0000 H   0  0  0  0  0  0  0  0  0  0  0  0
    7.5947   -1.4750    0.0000 H   0  0  0  0  0  0  0  0  0  0  0  0
    6.7287   -0.0251    0.0000 H   0  0  0  0  0  0  0  0  0  0  0  0
    5.9316   -0.0251    0.0000 H   0  0  0  0  0  0  0  0  0  0  0  0
    5.4641   -2.6200    0.0000 H   0  0  0  0  0  0  0  0  0  0  0  0
    8.3176    1.1077    0.0000 H   0  0  0  0  0  0  0  0  0  0  0  0
    8.7162    0.4174    0.0000 H   0  0  0  0  0  0  0  0  0  0  0  0
    4.0611   -2.8100    0.0000 H   0  0  0  0  0  0  0  0  0  0  0  0
    3.1951   -1.6900    0.0000 H   0  0  0  0  0  0  0  0  0  0  0  0
    3.7320   -0.3800    0.0000 H   0  0  0  0  0  0  0  0  0  0  0  0
    9.5822   -1.9174    0.0000 H   0  0  0  0  0  0  0  0  0  0  0  0
    9.1836   -2.6077    0.0000 H   0  0  0  0  0  0  0  0  0  0  0  0
   13.6569   -0.0251    0.0000 H   0  0  0  0  0  0  0  0  0  0  0  0
   12.8598   -0.0251    0.0000 H   0  0  0  0  0  0  0  0  0  0  0  0
    2.8660   -3.1200    0.0000 H   0  0  0  0  0  0  0  0  0  0  0  0
   13.0123    2.0000    0.0000 H   0  0  0  0  0  0  0  0  0  0  0  0
   12.3923    2.6200    0.0000 H   0  0  0  0  0  0  0  0  0  0  0  0
   11.7723    2.0000    0.0000 H   0  0  0  0  0  0  0  0  0  0  0  0
    7.4516    2.6077    0.0000 H   0  0  0  0  0  0  0  0  0  0  0  0
    7.8501    1.9174    0.0000 H   0  0  0  0  0  0  0  0  0  0  0  0
    5.7101   -3.5000    0.0000 H   0  0  0  0  0  0  0  0  0  0  0  0
    6.3301   -4.1200    0.0000 H   0  0  0  0  0  0  0  0  0  0  0  0
    6.9501   -3.5000    0.0000 H   0  0  0  0  0  0  0  0  0  0  0  0
    5.1541   -4.5369    0.0000 H   0  0  0  0  0  0  0  0  0  0  0  0
    6.0010   -4.3100    0.0000 H   0  0  0  0  0  0  0  0  0  0  0  0
    5.7741   -3.4631    0.0000 H   0  0  0  0  0  0  0  0  0  0  0  0
    8.3913   -3.6900    0.0000 H   0  0  0  0  0  0  0  0  0  0  0  0
   11.1972   -3.6900    0.0000 H   0  0  0  0  0  0  0  0  0  0  0  0
   13.5874   -2.3100    0.0000 H   0  0  0  0  0  0  0  0  0  0  0  0
   14.9904    0.1200    0.0000 H   0  0  0  0  0  0  0  0  0  0  0  0
    8.3913   -5.3100    0.0000 H   0  0  0  0  0  0  0  0  0  0  0  0
   11.1972   -5.3100    0.0000 H   0  0  0  0  0  0  0  0  0  0  0  0
    2.3100    1.5369    0.0000 H   0  0  0  0  0  0  0  0  0  0  0  0
    1.4631    1.3100    0.0000 H   0  0  0  0  0  0  0  0  0  0  0  0
    1.6900    0.4631    0.0000 H   0  0  0  0  0  0  0  0  0  0  0  0
    6.6592    3.6900    0.0000 H   0  0  0  0  0  0  0  0  0  0  0  0
    9.4651    3.6900    0.0000 H   0  0  0  0  0  0  0  0  0  0  0  0
   14.9904   -3.1200    0.0000 H   0  0  0  0  0  0  0  0  0  0  0  0
   16.3933   -0.6900    0.0000 H   0  0  0  0  0  0  0  0  0  0  0  0
    9.7942   -6.1200    0.0000 H   0  0  0  0  0  0  0  0  0  0  0  0
   16.3933   -2.3100    0.0000 H   0  0  0  0  0  0  0  0  0  0  0  0
    6.6592    5.3100    0.0000 H   0  0  0  0  0  0  0  0  0  0  0  0
    9.4651    5.3100    0.0000 H   0  0  0  0  0  0  0  0  0  0  0  0
    8.0622    6.1200    0.0000 H   0  0  0  0  0  0  0  0  0  0  0  0
  1 14  1  0  0  0  0
  1 18  1  0  0  0  0
  2 13  1  0  0  0  0
  2 27  1  0  0  0  0
  3 16  1  0  0  0  0
  3 28  1  0  0  0  0
  4 19  1  0  0  0  0
  4 26  1  0  0  0  0
  5 18  1  0  0  0  0
  5 30  1  0  0  0  0
  6 23  1  0  0  0  0
  6 32  1  0  0  0  0
  7 22  1  0  0  0  0
  7 34  1  0  0  0  0
  8 24  1  0  0  0  0
  8 35  1  0  0  0  0
  9 25  1  0  0  0  0
  9 77  1  0  0  0  0
 10 29  1  0  0  0  0
 10 43  1  0  0  0  0
 11 29  2  0  0  0  0
 12 13  1  0  0  0  0
 12 14  1  0  0  0  0
 12 15  1  0  0  0  0
 12 53  1  0  0  0  0
 13 16  1  0  0  0  0
 13 54  1  0  0  0  0
 14 23  1  0  0  0  0
 14 55  1  0  0  0  0
 15 17  1  0  0  0  0
 15 56  1  0  0  0  0
 15 57  1  0  0  0  0
 16 18  1  0  0  0  0
 16 58  1  0  0  0  0
 17 20  1  0  0  0  0
 17 59  1  0  0  0  0
 17 60  1  0  0  0  0
 18 61  1  0  0  0  0
 19 21  1  0  0  0  0
 19 22  1  0  0  0  0
 19 62  1  0  0  0  0
 20 21  1  0  0  0  0
 20 63  1  0  0  0  0
 20 64  1  0  0  0  0
 21 65  1  0  0  0  0
 21 66  1  0  0  0  0
 22 24  1  0  0  0  0
 22 67  1  0  0  0  0
 23 68  1  0  0  0  0
 23 69  1  0  0  0  0
 24 25  1  0  0  0  0
 24 70  1  0  0  0  0
 25 26  1  0  0  0  0
 25 71  1  0  0  0  0
 26 29  1  0  0  0  0
 26 72  1  0  0  0  0
 27 31  1  0  0  0  0
 27 73  1  0  0  0  0
 27 74  1  0  0  0  0
 28 33  1  0  0  0  0
 28 75  1  0  0  0  0
 28 76  1  0  0  0  0
 30 78  1  0  0  0  0
 30 79  1  0  0  0  0
 30 80  1  0  0  0  0
 31 37  2  0  0  0  0
 31 38  1  0  0  0  0
 32 36  1  0  0  0  0
 32 81  1  0  0  0  0
 32 82  1  0  0  0  0
 33 39  2  0  0  0  0
 33 40  1  0  0  0  0
 34 83  1  0  0  0  0
 34 84  1  0  0  0  0
 34 85  1  0  0  0  0
 35 86  1  0  0  0  0
 35 87  1  0  0  0  0
 35 88  1  0  0  0  0
 36 44  2  0  0  0  0
 36 45  1  0  0  0  0
 37 41  1  0  0  0  0
 37 89  1  0  0  0  0
 38 42  2  0  0  0  0
 38 90  1  0  0  0  0
 39 46  1  0  0  0  0
 39 91  1  0  0  0  0
 40 47  2  0  0  0  0
 40 92  1  0  0  0  0
 41 48  2  0  0  0  0
 41 93  1  0  0  0  0
 42 48  1  0  0  0  0
 42 94  1  0  0  0  0
 43 95  1  0  0  0  0
 43 96  1  0  0  0  0
 43 97  1  0  0  0  0
 44 50  1  0  0  0  0
 44 98  1  0  0  0  0
 45 51  2  0  0  0  0
 45 99  1  0  0  0  0
 46 49  2  0  0  0  0
 46100  1  0  0  0  0
 47 49  1  0  0  0  0
 47101  1  0  0  0  0
 48102  1  0  0  0  0
 49103  1  0  0  0  0
 50 52  2  0  0  0  0
 50104  1  0  0  0  0
 51 52  1  0  0  0  0
 51105  1  0  0  0  0
 52106  1  0  0  0  0
M  END
> <PUBCHEM_COMPOUND_CID>
123643546

> <PUBCHEM_COMPOUND_CANONICALIZED>
1

> <PUBCHEM_CACTVS_COMPLEXITY>
982

> <PUBCHEM_CACTVS_HBOND_ACCEPTOR>
11

> <PUBCHEM_CACTVS_HBOND_DONOR>
1

> <PUBCHEM_CACTVS_ROTATABLE_BOND>
20

> <PUBCHEM_CACTVS_SUBSKEYS>
AAADcfB8PAAAAAAAAAAAAAAAAAAAAAAAAAA0aMECAAAAAAABUAAAGgAACAAADRSwmAMyCIAABgCIAiDSCAICAAAgAAAIiAFACIgZNjaAMRyicAAl4AEPqAfK7OzOAAAAAAAAAAAAAAAAAAAAAAAAAAAAAA==

> <PUBCHEM_IUPAC_OPENEYE_NAME>
methyl 6-[4-[4,5-dibenzyloxy-2-(benzyloxymethyl)-6-methoxy-tetrahydropyran-3-yl]butyl]-3-hydroxy-4,5-dimethoxy-tetrahydropyran-2-carboxylate

> <PUBCHEM_IUPAC_CAS_NAME>
3-hydroxy-4,5-dimethoxy-6-[4-[6-methoxy-4,5-bis(phenylmethoxy)-2-(phenylmethoxymethyl)-3-oxanyl]butyl]-2-oxanecarboxylic acid methyl ester

> <PUBCHEM_IUPAC_NAME_MARKUP>
methyl 3-hydroxy-4,5-dimethoxy-6-[4-[6-methoxy-4,5-bis(phenylmethoxy)-2-(phenylmethoxymethyl)oxan-3-yl]butyl]oxane-2-carboxylate

> <PUBCHEM_IUPAC_NAME>
methyl 3-hydroxy-4,5-dimethoxy-6-[4-[6-methoxy-4,5-bis(phenylmethoxy)-2-(phenylmethoxymethyl)oxan-3-yl]butyl]oxane-2-carboxylate

> <PUBCHEM_IUPAC_SYSTEMATIC_NAME>
methyl 4,5-dimethoxy-6-[4-[6-methoxy-4,5-bis(phenylmethoxy)-2-(phenylmethoxymethyl)oxan-3-yl]butyl]-3-oxidanyl-oxane-2-carboxylate

> <PUBCHEM_IUPAC_TRADITIONAL_NAME>
6-[4-[4,5-dibenzoxy-2-(benzoxymethyl)-6-methoxy-tetrahydropyran-3-yl]butyl]-3-hydroxy-4,5-dimethoxy-tetrahydropyran-2-carboxylic acid methyl ester

> <PUBCHEM_IUPAC_INCHI>
InChI=1S/C41H54O11/c1-44-36-32(51-38(40(43)46-3)34(42)37(36)45-2)23-15-14-22-31-33(27-48-24-28-16-8-5-9-17-28)52-41(47-4)39(50-26-30-20-12-7-13-21-30)35(31)49-25-29-18-10-6-11-19-29/h5-13,16-21,31-39,41-42H,14-15,22-27H2,1-4H3

> <PUBCHEM_IUPAC_INCHIKEY>
YZWVRAVJPZNRHR-UHFFFAOYSA-N

> <PUBCHEM_XLOGP3_AA>
5.4

> <PUBCHEM_EXACT_MASS>
722.36661253

> <PUBCHEM_MOLECULAR_FORMULA>
C41H54O11

> <PUBCHEM_MOLECULAR_WEIGHT>
722.9

> <PUBCHEM_OPENEYE_CAN_SMILES>
COC1C(OC(C(C1OC)O)C(=O)OC)CCCCC2C(OC(C(C2OCC3=CC=CC=C3)OCC4=CC=CC=C4)OC)COCC5=CC=CC=C5

> <PUBCHEM_OPENEYE_ISO_SMILES>
COC1C(OC(C(C1OC)O)C(=O)OC)CCCCC2C(OC(C(C2OCC3=CC=CC=C3)OCC4=CC=CC=C4)OC)COCC5=CC=CC=C5

> <PUBCHEM_CACTVS_TPSA>
120

> <PUBCHEM_MONOISOTOPIC_WEIGHT>
722.36661253

> <PUBCHEM_TOTAL_CHARGE>
0

> <PUBCHEM_HEAVY_ATOM_COUNT>
52

> <PUBCHEM_ATOM_DEF_STEREO_COUNT>
0

> <PUBCHEM_ATOM_UDEF_STEREO_COUNT>
10

> <PUBCHEM_BOND_DEF_STEREO_COUNT>
0

> <PUBCHEM_BOND_UDEF_STEREO_COUNT>
0

> <PUBCHEM_ISOTOPIC_ATOM_COUNT>
0

> <PUBCHEM_COMPONENT_COUNT>
1

> <PUBCHEM_CACTVS_TAUTO_COUNT>
-1

> <PUBCHEM_COORDINATE_TYPE>
1
5
255

> <PUBCHEM_BONDANNOTATIONS>
12  15  3
14  23  3
19  21  3
13  2  3
26  29  3
16  3  3
31  37  8
31  38  8
33  39  8
33  40  8
36  44  8
36  45  8
37  41  8
38  42  8
39  46  8
40  47  8
41  48  8
42  48  8
44  50  8
45  51  8
46  49  8
47  49  8
18  5  3
50  52  8
51  52  8
22  7  3
24  8  3
25  9  3

$$$$
