 
  -OEChem-10192104012D

 65 66  0     1  0  0  0  0  0999 V2000
    4.2690   -0.4051    0.0000 O   0  0  0  0  0  0  0  0  0  0  0  0
    7.7331    1.5950    0.0000 O   0  0  0  0  0  0  0  0  0  0  0  0
    5.1350   -0.9050    0.0000 O   0  0  0  0  0  0  0  0  0  0  0  0
    6.0010   -1.4050    0.0000 O   0  0  0  0  0  0  0  0  0  0  0  0
    6.7331   -1.4050    0.0000 O   0  0  0  0  0  0  0  0  0  0  0  0
    5.1350    2.0950    0.0000 N   0  0  0  0  0  0  0  0  0  0  0  0
    6.8671    0.0950    0.0000 N   0  0  0  0  0  0  0  0  0  0  0  0
    4.2690    0.5950    0.0000 N   0  0  0  0  0  0  0  0  0  0  0  0
    6.0010    3.5950    0.0000 N   0  0  0  0  0  0  0  0  0  0  0  0
    4.2690    3.5950    0.0000 N   0  0  0  0  0  0  0  0  0  0  0  0
    4.2690   -2.4050    0.0000 N   0  0  0  0  0  0  0  0  0  0  0  0
    6.8671   -2.9050    0.0000 N   0  0  0  0  0  0  0  0  0  0  0  0
    2.5369   -1.4050    0.0000 N   0  0  0  0  0  0  0  0  0  0  0  0
    8.5991   -0.9050    0.0000 N   0  0  0  0  0  0  0  0  0  0  0  0
    8.5991   -3.9050    0.0000 N   0  0  0  0  0  0  0  0  0  0  0  0
   10.3312    0.0950    0.0000 N   0  0  0  0  0  0  0  0  0  0  0  0
    6.0010    1.5950    0.0000 C   0  0  3  0  0  0  0  0  0  0  0  0
    6.0010    0.5950    0.0000 C   0  0  1  0  0  0  0  0  0  0  0  0
    6.8671    2.0950    0.0000 C   0  0  0  0  0  0  0  0  0  0  0  0
    6.8671    3.0950    0.0000 C   0  0  0  0  0  0  0  0  0  0  0  0
    5.1350    0.0950    0.0000 C   0  0  0  0  0  0  0  0  0  0  0  0
    5.1350    3.0950    0.0000 C   0  0  0  0  0  0  0  0  0  0  0  0
    3.4030    0.0950    0.0000 C   0  0  0  0  0  0  0  0  0  0  0  0
    3.4030   -0.9050    0.0000 C   0  0  1  0  0  0  0  0  0  0  0  0
    7.7331    0.5950    0.0000 C   0  0  0  0  0  0  0  0  0  0  0  0
    5.1350   -2.9050    0.0000 C   0  0  2  0  0  0  0  0  0  0  0  0
    4.2690   -1.4050    0.0000 C   0  0  0  0  0  0  0  0  0  0  0  0
    7.7331   -2.4050    0.0000 C   0  0  2  0  0  0  0  0  0  0  0  0
    8.5991    0.0950    0.0000 C   0  0  0  0  0  0  0  0  0  0  0  0
    6.0010   -2.4050    0.0000 C   0  0  0  0  0  0  0  0  0  0  0  0
    7.7331   -1.4050    0.0000 C   0  0  0  0  0  0  0  0  0  0  0  0
    8.5991   -2.9050    0.0000 C   0  0  0  0  0  0  0  0  0  0  0  0
    5.1350   -3.9050    0.0000 C   0  0  0  0  0  0  0  0  0  0  0  0
    9.4651    0.5950    0.0000 C   0  0  0  0  0  0  0  0  0  0  0  0
    5.4641    1.2850    0.0000 H   0  0  0  0  0  0  0  0  0  0  0  0
    6.7372    1.0200    0.0000 H   0  0  0  0  0  0  0  0  0  0  0  0
    7.0791    1.5124    0.0000 H   0  0  0  0  0  0  0  0  0  0  0  0
    7.4776    2.2027    0.0000 H   0  0  0  0  0  0  0  0  0  0  0  0
    4.5981    1.7850    0.0000 H   0  0  0  0  0  0  0  0  0  0  0  0
    7.4776    2.9873    0.0000 H   0  0  0  0  0  0  0  0  0  0  0  0
    7.0791    3.6776    0.0000 H   0  0  0  0  0  0  0  0  0  0  0  0
    6.8671   -0.5250    0.0000 H   0  0  0  0  0  0  0  0  0  0  0  0
    4.2690    1.2150    0.0000 H   0  0  0  0  0  0  0  0  0  0  0  0
    3.1909    0.6776    0.0000 H   0  0  0  0  0  0  0  0  0  0  0  0
    2.7924   -0.0127    0.0000 H   0  0  0  0  0  0  0  0  0  0  0  0
    3.4030   -1.5250    0.0000 H   0  0  0  0  0  0  0  0  0  0  0  0
    4.5981   -3.2150    0.0000 H   0  0  0  0  0  0  0  0  0  0  0  0
    7.7331   -3.0250    0.0000 H   0  0  0  0  0  0  0  0  0  0  0  0
    4.2690    4.2150    0.0000 H   0  0  0  0  0  0  0  0  0  0  0  0
    3.7320    3.2850    0.0000 H   0  0  0  0  0  0  0  0  0  0  0  0
    3.7320   -2.7150    0.0000 H   0  0  0  0  0  0  0  0  0  0  0  0
    6.8671   -3.5250    0.0000 H   0  0  0  0  0  0  0  0  0  0  0  0
    2.0000   -1.0950    0.0000 H   0  0  0  0  0  0  0  0  0  0  0  0
    2.5369   -2.0250    0.0000 H   0  0  0  0  0  0  0  0  0  0  0  0
    9.1360   -1.2150    0.0000 H   0  0  0  0  0  0  0  0  0  0  0  0
    9.2097   -3.0127    0.0000 H   0  0  0  0  0  0  0  0  0  0  0  0
    8.8112   -2.3224    0.0000 H   0  0  0  0  0  0  0  0  0  0  0  0
    4.5150   -3.9050    0.0000 H   0  0  0  0  0  0  0  0  0  0  0  0
    5.1350   -4.5250    0.0000 H   0  0  0  0  0  0  0  0  0  0  0  0
    5.7550   -3.9050    0.0000 H   0  0  0  0  0  0  0  0  0  0  0  0
    9.4651    1.2150    0.0000 H   0  0  0  0  0  0  0  0  0  0  0  0
    9.1360   -4.2150    0.0000 H   0  0  0  0  0  0  0  0  0  0  0  0
    8.0622   -4.2150    0.0000 H   0  0  0  0  0  0  0  0  0  0  0  0
   10.8681    0.4050    0.0000 H   0  0  0  0  0  0  0  0  0  0  0  0
   10.3312   -0.5250    0.0000 H   0  0  0  0  0  0  0  0  0  0  0  0
  1 21  2  0  0  0  0
  2 25  2  0  0  0  0
  3 27  2  0  0  0  0
  4 30  2  0  0  0  0
  5 31  2  0  0  0  0
  6 17  1  0  0  0  0
  6 22  1  0  0  0  0
  6 39  1  0  0  0  0
  7 18  1  0  0  0  0
  7 25  1  0  0  0  0
  7 42  1  0  0  0  0
  8 21  1  0  0  0  0
  8 23  1  0  0  0  0
  8 43  1  0  0  0  0
  9 20  1  0  0  0  0
  9 22  2  0  0  0  0
 10 22  1  0  0  0  0
 10 49  1  0  0  0  0
 10 50  1  0  0  0  0
 11 26  1  0  0  0  0
 11 27  1  0  0  0  0
 11 51  1  0  0  0  0
 12 28  1  0  0  0  0
 12 30  1  0  0  0  0
 12 52  1  0  0  0  0
 24 13  1  1  0  0  0
 13 53  1  0  0  0  0
 13 54  1  0  0  0  0
 14 29  1  0  0  0  0
 14 31  1  0  0  0  0
 14 55  1  0  0  0  0
 15 32  1  0  0  0  0
 15 62  1  0  0  0  0
 15 63  1  0  0  0  0
 16 34  1  0  0  0  0
 16 64  1  0  0  0  0
 16 65  1  0  0  0  0
 17 18  1  0  0  0  0
 17 19  1  0  0  0  0
 17 35  1  0  0  0  0
 18 21  1  0  0  0  0
 18 36  1  1  0  0  0
 19 20  1  0  0  0  0
 19 37  1  0  0  0  0
 19 38  1  0  0  0  0
 20 40  1  0  0  0  0
 20 41  1  0  0  0  0
 23 24  1  0  0  0  0
 23 44  1  0  0  0  0
 23 45  1  0  0  0  0
 24 27  1  0  0  0  0
 24 46  1  0  0  0  0
 25 29  1  0  0  0  0
 26 30  1  0  0  0  0
 26 33  1  6  0  0  0
 26 47  1  0  0  0  0
 28 31  1  0  0  0  0
 28 32  1  6  0  0  0
 28 48  1  0  0  0  0
 29 34  2  0  0  0  0
 32 56  1  0  0  0  0
 32 57  1  0  0  0  0
 33 58  1  0  0  0  0
 33 59  1  0  0  0  0
 33 60  1  0  0  0  0
 34 61  1  0  0  0  0
M  END
> <PUBCHEM_COMPOUND_CID>
89194787

> <PUBCHEM_COMPOUND_CANONICALIZED>
1

> <PUBCHEM_CACTVS_COMPLEXITY>
890

> <PUBCHEM_CACTVS_HBOND_ACCEPTOR>
9

> <PUBCHEM_CACTVS_HBOND_DONOR>
10

> <PUBCHEM_CACTVS_ROTATABLE_BOND>
2

> <PUBCHEM_CACTVS_SUBSKEYS>
AAADceB7+AAAAAAAAAAAAAAAAAAAAAAAAAAgAAAAAAAAAAAAAAAAHgAQAAAACCjBgAQDAALAAACoAAVWdACAAAEAAgABAIGIAECAQBoAyCAUAAAAFgKAAMAYAQAAAAAAAAAAAAAAAAAAAAAAAAAAAAAAAA==

> <PUBCHEM_IUPAC_OPENEYE_NAME>
(3S,6Z,9S,12S,15S)-15-amino-9-(aminomethyl)-6-(aminomethylene)-3-(2-amino-1,4,5,6-tetrahydropyrimidin-6-yl)-12-methyl-1,4,7,10,13-pentazacyclohexadecane-2,5,8,11,14-pentone

> <PUBCHEM_IUPAC_CAS_NAME>
(3S,6Z,9S,12S,15S)-15-amino-9-(aminomethyl)-6-(aminomethylidene)-3-(2-amino-1,4,5,6-tetrahydropyrimidin-6-yl)-12-methyl-1,4,7,10,13-pentazacyclohexadecane-2,5,8,11,14-pentone

> <PUBCHEM_IUPAC_NAME_MARKUP>
(3<I>S</I>,6<I>Z</I>,9<I>S</I>,12<I>S</I>,15<I>S</I>)-15-amino-9-(aminomethyl)-6-(aminomethylidene)-3-(2-amino-1,4,5,6-tetrahydropyrimidin-6-yl)-12-methyl-1,4,7,10,13-pentazacyclohexadecane-2,5,8,11,14-pentone

> <PUBCHEM_IUPAC_NAME>
(3S,6Z,9S,12S,15S)-15-amino-9-(aminomethyl)-6-(aminomethylidene)-3-(2-amino-1,4,5,6-tetrahydropyrimidin-6-yl)-12-methyl-1,4,7,10,13-pentazacyclohexadecane-2,5,8,11,14-pentone

> <PUBCHEM_IUPAC_SYSTEMATIC_NAME>
(3S,6Z,9S,12S,15S)-9-(aminomethyl)-15-azanyl-6-(azanylmethylidene)-3-(2-azanyl-1,4,5,6-tetrahydropyrimidin-6-yl)-12-methyl-1,4,7,10,13-pentazacyclohexadecane-2,5,8,11,14-pentone

> <PUBCHEM_IUPAC_TRADITIONAL_NAME>
(3S,6Z,9S,12S,15S)-15-amino-9-(aminomethyl)-6-(aminomethylene)-3-(2-amino-1,4,5,6-tetrahydropyrimidin-6-yl)-12-methyl-1,4,7,10,13-pentazacyclohexadecane-2,5,8,11,14-pentone

> <PUBCHEM_IUPAC_INCHI>
InChI=1S/C18H31N11O5/c1-7-13(30)26-10(4-19)15(32)27-11(5-20)16(33)29-12(9-2-3-23-18(22)28-9)17(34)24-6-8(21)14(31)25-7/h5,7-10,12H,2-4,6,19-21H2,1H3,(H,24,34)(H,25,31)(H,26,30)(H,27,32)(H,29,33)(H3,22,23,28)/b11-5-/t7-,8-,9?,10-,12-/m0/s1

> <PUBCHEM_IUPAC_INCHIKEY>
UGXZNTPPHANUIW-YXQKKHDWSA-N

> <PUBCHEM_XLOGP3_AA>
-5.1

> <PUBCHEM_EXACT_MASS>
481.25096313

> <PUBCHEM_MOLECULAR_FORMULA>
C18H31N11O5

> <PUBCHEM_MOLECULAR_WEIGHT>
481.5

> <PUBCHEM_OPENEYE_CAN_SMILES>
CC1C(=O)NC(C(=O)NC(=CN)C(=O)NC(C(=O)NCC(C(=O)N1)N)C2CCN=C(N2)N)CN

> <PUBCHEM_OPENEYE_ISO_SMILES>
C[C@H]1C(=O)N[C@H](C(=O)N/C(=C\N)/C(=O)N[C@H](C(=O)NC[C@@H](C(=O)N1)N)C2CCN=C(N2)N)CN

> <PUBCHEM_CACTVS_TPSA>
274

> <PUBCHEM_MONOISOTOPIC_WEIGHT>
481.25096313

> <PUBCHEM_TOTAL_CHARGE>
0

> <PUBCHEM_HEAVY_ATOM_COUNT>
34

> <PUBCHEM_ATOM_DEF_STEREO_COUNT>
4

> <PUBCHEM_ATOM_UDEF_STEREO_COUNT>
1

> <PUBCHEM_BOND_DEF_STEREO_COUNT>
1

> <PUBCHEM_BOND_UDEF_STEREO_COUNT>
0

> <PUBCHEM_ISOTOPIC_ATOM_COUNT>
0

> <PUBCHEM_COMPONENT_COUNT>
1

> <PUBCHEM_CACTVS_TAUTO_COUNT>
-1

> <PUBCHEM_COORDINATE_TYPE>
1
5
255

> <PUBCHEM_BONDANNOTATIONS>
24  13  5
17  19  3
18  36  5
26  33  6
28  32  6

$$$$
