 
  -OEChem-10192104452D

 87 87  0     1  0  0  0  0  0999 V2000
    5.1350   -3.4050    0.0000 P   0  0  3  0  0  0  0  0  0  0  0  0
    4.2690   -3.9050    0.0000 O   0  0  0  0  0  0  0  0  0  0  0  0
    6.0010   -4.9050    0.0000 O   0  0  0  0  0  0  0  0  0  0  0  0
    2.5369   -4.9050    0.0000 O   0  0  0  0  0  0  0  0  0  0  0  0
    6.0010   -6.9050    0.0000 O   0  0  0  0  0  0  0  0  0  0  0  0
    2.5369   -6.9050    0.0000 O   0  0  0  0  0  0  0  0  0  0  0  0
    4.2690   -7.9050    0.0000 O   0  0  0  0  0  0  0  0  0  0  0  0
    6.0010   -2.9050    0.0000 O   0  0  0  0  0  0  0  0  0  0  0  0
    4.6350   -2.5390    0.0000 O   0  0  0  0  0  0  0  0  0  0  0  0
    5.6350   -4.2710    0.0000 O   0  0  0  0  0  0  0  0  0  0  0  0
    7.7331   -1.9050    0.0000 O   0  0  0  0  0  0  0  0  0  0  0  0
    7.7331    0.0950    0.0000 O   0  0  0  0  0  0  0  0  0  0  0  0
    6.8671    1.5950    0.0000 O   0  0  0  0  0  0  0  0  0  0  0  0
    4.2690   -4.9050    0.0000 C   0  0  0  0  0  0  0  0  0  0  0  0
    5.1350   -5.4050    0.0000 C   0  0  3  0  0  0  0  0  0  0  0  0
    3.4030   -5.4050    0.0000 C   0  0  3  0  0  0  0  0  0  0  0  0
    5.1350   -6.4050    0.0000 C   0  0  3  0  0  0  0  0  0  0  0  0
    3.4030   -6.4050    0.0000 C   0  0  1  0  0  0  0  0  0  0  0  0
    4.2690   -6.9050    0.0000 C   0  0  0  0  0  0  0  0  0  0  0  0
    6.0010   -1.9050    0.0000 C   0  0  0  0  0  0  0  0  0  0  0  0
    6.8671   -1.4050    0.0000 C   0  0  1  0  0  0  0  0  0  0  0  0
    6.8671   -0.4050    0.0000 C   0  0  0  0  0  0  0  0  0  0  0  0
    9.4651    4.0950    0.0000 C   0  0  0  0  0  0  0  0  0  0  0  0
    9.4651    3.0950    0.0000 C   0  0  0  0  0  0  0  0  0  0  0  0
   10.3312    4.5950    0.0000 C   0  0  0  0  0  0  0  0  0  0  0  0
    8.5991    2.5950    0.0000 C   0  0  0  0  0  0  0  0  0  0  0  0
   10.3312    5.5950    0.0000 C   0  0  0  0  0  0  0  0  0  0  0  0
    8.5991    1.5950    0.0000 C   0  0  0  0  0  0  0  0  0  0  0  0
   11.1972    6.0950    0.0000 C   0  0  0  0  0  0  0  0  0  0  0  0
    7.7331    1.0950    0.0000 C   0  0  0  0  0  0  0  0  0  0  0  0
   11.1972    7.0950    0.0000 C   0  0  0  0  0  0  0  0  0  0  0  0
   12.0632    7.5950    0.0000 C   0  0  0  0  0  0  0  0  0  0  0  0
   12.9292    7.0950    0.0000 C   0  0  0  0  0  0  0  0  0  0  0  0
   13.7953    7.5950    0.0000 C   0  0  0  0  0  0  0  0  0  0  0  0
   14.6613    7.0950    0.0000 C   0  0  0  0  0  0  0  0  0  0  0  0
   14.6613    6.0950    0.0000 C   0  0  0  0  0  0  0  0  0  0  0  0
   15.5273    5.5950    0.0000 C   0  0  0  0  0  0  0  0  0  0  0  0
   15.5273    4.5950    0.0000 C   0  0  0  0  0  0  0  0  0  0  0  0
   14.6613    4.0950    0.0000 C   0  0  0  0  0  0  0  0  0  0  0  0
   14.6613    3.0950    0.0000 C   0  0  0  0  0  0  0  0  0  0  0  0
    4.8059   -4.5950    0.0000 H   0  0  0  0  0  0  0  0  0  0  0  0
    5.6720   -5.7150    0.0000 H   0  0  0  0  0  0  0  0  0  0  0  0
    3.4030   -4.7850    0.0000 H   0  0  0  0  0  0  0  0  0  0  0  0
    5.1350   -7.0250    0.0000 H   0  0  0  0  0  0  0  0  0  0  0  0
    3.4030   -7.0250    0.0000 H   0  0  0  0  0  0  0  0  0  0  0  0
    3.7320   -7.2150    0.0000 H   0  0  0  0  0  0  0  0  0  0  0  0
    6.5380   -5.2150    0.0000 H   0  0  0  0  0  0  0  0  0  0  0  0
    2.0000   -5.2150    0.0000 H   0  0  0  0  0  0  0  0  0  0  0  0
    6.0010   -7.5250    0.0000 H   0  0  0  0  0  0  0  0  0  0  0  0
    2.5369   -7.5250    0.0000 H   0  0  0  0  0  0  0  0  0  0  0  0
    3.7320   -8.2150    0.0000 H   0  0  0  0  0  0  0  0  0  0  0  0
    4.0150   -2.5390    0.0000 H   0  0  0  0  0  0  0  0  0  0  0  0
    5.7890   -1.3224    0.0000 H   0  0  0  0  0  0  0  0  0  0  0  0
    5.3905   -2.0127    0.0000 H   0  0  0  0  0  0  0  0  0  0  0  0
    7.4040   -1.0950    0.0000 H   0  0  0  0  0  0  0  0  0  0  0  0
    9.2531    4.6776    0.0000 H   0  0  0  0  0  0  0  0  0  0  0  0
    8.8546    3.9873    0.0000 H   0  0  0  0  0  0  0  0  0  0  0  0
    9.6772    2.5124    0.0000 H   0  0  0  0  0  0  0  0  0  0  0  0
   10.0757    3.2027    0.0000 H   0  0  0  0  0  0  0  0  0  0  0  0
    6.6550    0.1776    0.0000 H   0  0  0  0  0  0  0  0  0  0  0  0
    6.2565   -0.5127    0.0000 H   0  0  0  0  0  0  0  0  0  0  0  0
   10.5432    4.0124    0.0000 H   0  0  0  0  0  0  0  0  0  0  0  0
   10.9417    4.7027    0.0000 H   0  0  0  0  0  0  0  0  0  0  0  0
    8.3871    3.1776    0.0000 H   0  0  0  0  0  0  0  0  0  0  0  0
    7.9885    2.4873    0.0000 H   0  0  0  0  0  0  0  0  0  0  0  0
   10.1191    6.1776    0.0000 H   0  0  0  0  0  0  0  0  0  0  0  0
    9.7206    5.4873    0.0000 H   0  0  0  0  0  0  0  0  0  0  0  0
    8.8112    1.0124    0.0000 H   0  0  0  0  0  0  0  0  0  0  0  0
    9.2097    1.7027    0.0000 H   0  0  0  0  0  0  0  0  0  0  0  0
   11.4092    5.5124    0.0000 H   0  0  0  0  0  0  0  0  0  0  0  0
   11.8078    6.2027    0.0000 H   0  0  0  0  0  0  0  0  0  0  0  0
    8.2700   -1.5950    0.0000 H   0  0  0  0  0  0  0  0  0  0  0  0
   10.6603    7.4050    0.0000 H   0  0  0  0  0  0  0  0  0  0  0  0
   12.0632    8.2150    0.0000 H   0  0  0  0  0  0  0  0  0  0  0  0
   12.5307    6.6200    0.0000 H   0  0  0  0  0  0  0  0  0  0  0  0
   13.3278    6.6200    0.0000 H   0  0  0  0  0  0  0  0  0  0  0  0
   13.7953    8.2150    0.0000 H   0  0  0  0  0  0  0  0  0  0  0  0
   15.1982    7.4050    0.0000 H   0  0  0  0  0  0  0  0  0  0  0  0
   14.0507    6.2027    0.0000 H   0  0  0  0  0  0  0  0  0  0  0  0
   14.4492    5.5124    0.0000 H   0  0  0  0  0  0  0  0  0  0  0  0
   16.0643    5.9050    0.0000 H   0  0  0  0  0  0  0  0  0  0  0  0
   16.0643    4.2850    0.0000 H   0  0  0  0  0  0  0  0  0  0  0  0
   14.4492    4.6776    0.0000 H   0  0  0  0  0  0  0  0  0  0  0  0
   14.0507    3.9873    0.0000 H   0  0  0  0  0  0  0  0  0  0  0  0
   14.0413    3.0950    0.0000 H   0  0  0  0  0  0  0  0  0  0  0  0
   14.6613    2.4750    0.0000 H   0  0  0  0  0  0  0  0  0  0  0  0
   15.2813    3.0950    0.0000 H   0  0  0  0  0  0  0  0  0  0  0  0
  1  2  1  0  0  0  0
  1  8  1  0  0  0  0
  1  9  1  0  0  0  0
  1 10  2  0  0  0  0
  2 14  1  0  0  0  0
  3 15  1  0  0  0  0
  3 47  1  0  0  0  0
  4 16  1  0  0  0  0
  4 48  1  0  0  0  0
  5 17  1  0  0  0  0
  5 49  1  0  0  0  0
 18  6  1  1  0  0  0
  6 50  1  0  0  0  0
  7 19  1  0  0  0  0
  7 51  1  0  0  0  0
  8 20  1  0  0  0  0
  9 52  1  0  0  0  0
 21 11  1  1  0  0  0
 11 72  1  0  0  0  0
 12 22  1  0  0  0  0
 12 30  1  0  0  0  0
 13 30  2  0  0  0  0
 14 15  1  0  0  0  0
 14 16  1  0  0  0  0
 14 41  1  0  0  0  0
 15 17  1  0  0  0  0
 15 42  1  0  0  0  0
 16 18  1  0  0  0  0
 16 43  1  0  0  0  0
 17 19  1  0  0  0  0
 17 44  1  0  0  0  0
 18 19  1  0  0  0  0
 18 45  1  0  0  0  0
 19 46  1  0  0  0  0
 20 21  1  0  0  0  0
 20 53  1  0  0  0  0
 20 54  1  0  0  0  0
 21 22  1  0  0  0  0
 21 55  1  0  0  0  0
 22 60  1  0  0  0  0
 22 61  1  0  0  0  0
 23 24  1  0  0  0  0
 23 25  1  0  0  0  0
 23 56  1  0  0  0  0
 23 57  1  0  0  0  0
 24 26  1  0  0  0  0
 24 58  1  0  0  0  0
 24 59  1  0  0  0  0
 25 27  1  0  0  0  0
 25 62  1  0  0  0  0
 25 63  1  0  0  0  0
 26 28  1  0  0  0  0
 26 64  1  0  0  0  0
 26 65  1  0  0  0  0
 27 29  1  0  0  0  0
 27 66  1  0  0  0  0
 27 67  1  0  0  0  0
 28 30  1  0  0  0  0
 28 68  1  0  0  0  0
 28 69  1  0  0  0  0
 29 31  1  0  0  0  0
 29 70  1  0  0  0  0
 29 71  1  0  0  0  0
 31 32  2  0  0  0  0
 31 73  1  0  0  0  0
 32 33  1  0  0  0  0
 32 74  1  0  0  0  0
 33 34  1  0  0  0  0
 33 75  1  0  0  0  0
 33 76  1  0  0  0  0
 34 35  2  0  0  0  0
 34 77  1  0  0  0  0
 35 36  1  0  0  0  0
 35 78  1  0  0  0  0
 36 37  1  0  0  0  0
 36 79  1  0  0  0  0
 36 80  1  0  0  0  0
 37 38  2  0  0  0  0
 37 81  1  0  0  0  0
 38 39  1  0  0  0  0
 38 82  1  0  0  0  0
 39 40  1  0  0  0  0
 39 83  1  0  0  0  0
 39 84  1  0  0  0  0
 40 85  1  0  0  0  0
 40 86  1  0  0  0  0
 40 87  1  0  0  0  0
M  END
> <PUBCHEM_COMPOUND_CID>
52928623

> <PUBCHEM_COMPOUND_CANONICALIZED>
1

> <PUBCHEM_CACTVS_COMPLEXITY>
816

> <PUBCHEM_CACTVS_HBOND_ACCEPTOR>
12

> <PUBCHEM_CACTVS_HBOND_DONOR>
7

> <PUBCHEM_CACTVS_ROTATABLE_BOND>
21

> <PUBCHEM_CACTVS_SUBSKEYS>
AAADcfB4PAIAAAAAAAAAAAAAAAAAAAAAAAAwAAAAAAAAAAAAAAAAGgAACCAACBSggAICCAAABxCIQCDSCIAAAAAgAAAICAEAAAgBEBIAAQACQAAFgAALAAPI6KSAAAAAAAAAAAACAAAQAACAAAAAAAAAAA==

> <PUBCHEM_IUPAC_OPENEYE_NAME>
[(2R)-2-hydroxy-3-[hydroxy-[(5R)-2,3,4,5,6-pentahydroxycyclohexoxy]phosphoryl]oxy-propyl] (9Z,12Z,15Z)-octadeca-9,12,15-trienoate

> <PUBCHEM_IUPAC_CAS_NAME>
(9Z,12Z,15Z)-octadeca-9,12,15-trienoic acid [(2R)-2-hydroxy-3-[hydroxy-[(5R)-2,3,4,5,6-pentahydroxycyclohexyl]oxyphosphoryl]oxypropyl] ester

> <PUBCHEM_IUPAC_NAME_MARKUP>
[(2<I>R</I>)-2-hydroxy-3-[hydroxy-[(5<I>R</I>)-2,3,4,5,6-pentahydroxycyclohexyl]oxyphosphoryl]oxypropyl] (9<I>Z</I>,12<I>Z</I>,15<I>Z</I>)-octadeca-9,12,15-trienoate

> <PUBCHEM_IUPAC_NAME>
[(2R)-2-hydroxy-3-[hydroxy-[(5R)-2,3,4,5,6-pentahydroxycyclohexyl]oxyphosphoryl]oxypropyl] (9Z,12Z,15Z)-octadeca-9,12,15-trienoate

> <PUBCHEM_IUPAC_SYSTEMATIC_NAME>
[(2R)-2-oxidanyl-3-[oxidanyl-[(5R)-2,3,4,5,6-pentakis(oxidanyl)cyclohexyl]oxy-phosphoryl]oxy-propyl] (9Z,12Z,15Z)-octadeca-9,12,15-trienoate

> <PUBCHEM_IUPAC_TRADITIONAL_NAME>
(9Z,12Z,15Z)-octadeca-9,12,15-trienoic acid [(2R)-2-hydroxy-3-[hydroxy-[(5R)-2,3,4,5,6-pentahydroxycyclohexoxy]phosphoryl]oxy-propyl] ester

> <PUBCHEM_IUPAC_INCHI>
InChI=1S/C27H47O12P/c1-2-3-4-5-6-7-8-9-10-11-12-13-14-15-16-17-21(29)37-18-20(28)19-38-40(35,36)39-27-25(33)23(31)22(30)24(32)26(27)34/h3-4,6-7,9-10,20,22-28,30-34H,2,5,8,11-19H2,1H3,(H,35,36)/b4-3-,7-6-,10-9-/t20-,22?,23-,24?,25?,26?,27?/m1/s1

> <PUBCHEM_IUPAC_INCHIKEY>
MLBWOYIGPAJIRN-FUAZWUEQSA-N

> <PUBCHEM_XLOGP3_AA>
1.1

> <PUBCHEM_EXACT_MASS>
594.28051393

> <PUBCHEM_MOLECULAR_FORMULA>
C27H47O12P

> <PUBCHEM_MOLECULAR_WEIGHT>
594.6

> <PUBCHEM_OPENEYE_CAN_SMILES>
CCC=CCC=CCC=CCCCCCCCC(=O)OCC(COP(=O)(O)OC1C(C(C(C(C1O)O)O)O)O)O

> <PUBCHEM_OPENEYE_ISO_SMILES>
CC/C=C\C/C=C\C/C=C\CCCCCCCC(=O)OC[C@H](COP(=O)(O)OC1C([C@@H](C(C(C1O)O)O)O)O)O

> <PUBCHEM_CACTVS_TPSA>
203

> <PUBCHEM_MONOISOTOPIC_WEIGHT>
594.28051393

> <PUBCHEM_TOTAL_CHARGE>
0

> <PUBCHEM_HEAVY_ATOM_COUNT>
40

> <PUBCHEM_ATOM_DEF_STEREO_COUNT>
2

> <PUBCHEM_ATOM_UDEF_STEREO_COUNT>
3

> <PUBCHEM_BOND_DEF_STEREO_COUNT>
3

> <PUBCHEM_BOND_UDEF_STEREO_COUNT>
0

> <PUBCHEM_ISOTOPIC_ATOM_COUNT>
0

> <PUBCHEM_COMPONENT_COUNT>
1

> <PUBCHEM_CACTVS_TAUTO_COUNT>
-1

> <PUBCHEM_COORDINATE_TYPE>
1
5
255

> <PUBCHEM_BONDANNOTATIONS>
21  11  5
15  3  3
16  4  3
17  5  3
18  6  5

$$$$
