 
  -OEChem-10192104392D

 13 12  0     0  0  0  0  0  0999 V2000
    3.4030   -0.0670    0.0000 S   0  0  0  0  0  0  0  0  0  0  0  0
    2.5369   -0.5670    0.0000 O   0  0  0  0  0  0  0  0  0  0  0  0
    2.9030    0.7990    0.0000 O   0  0  0  0  0  0  0  0  0  0  0  0
    3.9030   -0.9330    0.0000 O   0  0  0  0  0  0  0  0  0  0  0  0
    6.0010    0.4330    0.0000 N   0  3  0  0  0  0  0  0  0  0  0  0
    6.8671    0.9330    0.0000 N   0  0  0  0  0  0  0  0  0  0  0  0
    4.2690    0.4330    0.0000 C   0  0  0  0  0  0  0  0  0  0  0  0
    5.1350   -0.0670    0.0000 C   0  0  0  0  0  0  0  0  0  0  0  0
    4.6675    0.9080    0.0000 H   0  0  0  0  0  0  0  0  0  0  0  0
    3.8705    0.9080    0.0000 H   0  0  0  0  0  0  0  0  0  0  0  0
    4.7365   -0.5419    0.0000 H   0  0  0  0  0  0  0  0  0  0  0  0
    5.5335   -0.5419    0.0000 H   0  0  0  0  0  0  0  0  0  0  0  0
    2.0000   -0.2570    0.0000 H   0  0  0  0  0  0  0  0  0  0  0  0
  1  2  1  0  0  0  0
  1  3  2  0  0  0  0
  1  4  2  0  0  0  0
  1  7  1  0  0  0  0
  2 13  1  0  0  0  0
  5  6  3  0  0  0  0
  5  8  1  0  0  0  0
  7  8  1  0  0  0  0
  7  9  1  0  0  0  0
  7 10  1  0  0  0  0
  8 11  1  0  0  0  0
  8 12  1  0  0  0  0
M  CHG  1   5   1
M  END
> <PUBCHEM_COMPOUND_CID>
22715320

> <PUBCHEM_COMPOUND_CANONICALIZED>
1

> <PUBCHEM_CACTVS_COMPLEXITY>
191

> <PUBCHEM_CACTVS_HBOND_ACCEPTOR>
4

> <PUBCHEM_CACTVS_HBOND_DONOR>
1

> <PUBCHEM_CACTVS_ROTATABLE_BOND>
2

> <PUBCHEM_CACTVS_SUBSKEYS>
AAADcYBDMABAAAAAAAAAAAAAAAAAAAAAAAAAAAAAAAAAAAAAAAAAHAQICAAAAADFQASAAAAAAIIAAAAAAHBAAAAAAAAAAAAAAAAAAAAAAAAAAAAAAAAAAAAAAAAAAAAAAAAAAAAAAAAAAAAAAAAAAAAAAA==

> <PUBCHEM_IUPAC_OPENEYE_NAME>
2-sulfoethanediazonium

> <PUBCHEM_IUPAC_CAS_NAME>
2-sulfoethanediazonium

> <PUBCHEM_IUPAC_NAME_MARKUP>
2-sulfoethanediazonium

> <PUBCHEM_IUPAC_NAME>
2-sulfoethanediazonium

> <PUBCHEM_IUPAC_SYSTEMATIC_NAME>
2-sulfoethanediazonium

> <PUBCHEM_IUPAC_TRADITIONAL_NAME>
2-sulfoethanediazonium

> <PUBCHEM_IUPAC_INCHI>
InChI=1S/C2H4N2O3S/c3-4-1-2-8(5,6)7/h1-2H2/p+1

> <PUBCHEM_IUPAC_INCHIKEY>
ABSCFLHAGDDKPB-UHFFFAOYSA-O

> <PUBCHEM_XLOGP3_AA>
-0.3

> <PUBCHEM_EXACT_MASS>
137.00208820

> <PUBCHEM_MOLECULAR_FORMULA>
C2H5N2O3S+

> <PUBCHEM_MOLECULAR_WEIGHT>
137.14

> <PUBCHEM_OPENEYE_CAN_SMILES>
C(CS(=O)(=O)O)[N+]#N

> <PUBCHEM_OPENEYE_ISO_SMILES>
C(CS(=O)(=O)O)[N+]#N

> <PUBCHEM_CACTVS_TPSA>
90.9

> <PUBCHEM_MONOISOTOPIC_WEIGHT>
137.00208820

> <PUBCHEM_TOTAL_CHARGE>
1

> <PUBCHEM_HEAVY_ATOM_COUNT>
8

> <PUBCHEM_ATOM_DEF_STEREO_COUNT>
0

> <PUBCHEM_ATOM_UDEF_STEREO_COUNT>
0

> <PUBCHEM_BOND_DEF_STEREO_COUNT>
0

> <PUBCHEM_BOND_UDEF_STEREO_COUNT>
0

> <PUBCHEM_ISOTOPIC_ATOM_COUNT>
0

> <PUBCHEM_COMPONENT_COUNT>
1

> <PUBCHEM_CACTVS_TAUTO_COUNT>
-1

> <PUBCHEM_COORDINATE_TYPE>
1
5
255

$$$$
