 
  -OEChem-10192103442D

 77 78  0     1  0  0  0  0  0999 V2000
    5.5981   -2.8170    0.0000 O   0  0  0  0  0  0  0  0  0  0  0  0
    5.2320   -0.4510    0.0000 O   0  0  0  0  0  0  0  0  0  0  0  0
    3.1000   -1.1742    0.0000 O   0  0  0  0  0  0  0  0  0  0  0  0
    2.9263   -3.1589    0.0000 O   0  0  0  0  0  0  0  0  0  0  0  0
    4.5585   -4.3018    0.0000 O   0  0  0  0  0  0  0  0  0  0  0  0
    4.3660    1.0490    0.0000 O   0  0  0  0  0  0  0  0  0  0  0  0
    7.0981   -0.9510    0.0000 O   0  0  0  0  0  0  0  0  0  0  0  0
    3.8900    0.4887    0.0000 O   0  0  0  0  0  0  0  0  0  0  0  0
    2.0000   -2.3170    0.0000 O   0  0  0  0  0  0  0  0  0  0  0  0
    7.3301   -1.8170    0.0000 O   0  0  0  0  0  0  0  0  0  0  0  0
    3.3660   -4.6830    0.0000 O   0  0  0  0  0  0  0  0  0  0  0  0
    6.9641    0.5490    0.0000 O   0  0  0  0  0  0  0  0  0  0  0  0
    4.7320   -5.0490    0.0000 O   0  0  0  0  0  0  0  0  0  0  0  0
    6.9641    2.5490    0.0000 O   0  0  0  0  0  0  0  0  0  0  0  0
    5.2320    3.5490    0.0000 O   0  0  0  0  0  0  0  0  0  0  0  0
    3.5000    2.5490    0.0000 O   0  0  0  0  0  0  0  0  0  0  0  0
    6.0981    4.0490    0.0000 O   0  0  0  0  0  0  0  0  0  0  0  0
    3.5000    3.5490    0.0000 O   0  0  0  0  0  0  0  0  0  0  0  0
    4.7320   -1.3170    0.0000 C   0  0  1  0  0  0  0  0  0  0  0  0
    3.8660   -1.8170    0.0000 C   0  0  2  0  0  0  0  0  0  0  0  0
    5.5981   -1.8170    0.0000 C   0  0  1  0  0  0  0  0  0  0  0  0
    3.8660   -2.8170    0.0000 C   0  0  1  0  0  0  0  0  0  0  0  0
    4.7320   -3.3170    0.0000 C   0  0  2  0  0  0  0  0  0  0  0  0
    4.2320   -0.4510    0.0000 C   0  0  0  0  0  0  0  0  0  0  0  0
    6.0981   -0.9510    0.0000 C   0  0  0  0  0  0  0  0  0  0  0  0
    2.8660   -1.8170    0.0000 C   0  0  0  0  0  0  0  0  0  0  0  0
    6.4641   -2.3170    0.0000 C   0  0  0  0  0  0  0  0  0  0  0  0
    3.3660   -3.6830    0.0000 C   0  0  0  0  0  0  0  0  0  0  0  0
    5.2320    0.5490    0.0000 C   0  0  2  0  0  0  0  0  0  0  0  0
    5.2320   -4.1830    0.0000 C   0  0  0  0  0  0  0  0  0  0  0  0
    6.0981    1.0490    0.0000 C   0  0  1  0  0  0  0  0  0  0  0  0
    6.0981    2.0490    0.0000 C   0  0  1  0  0  0  0  0  0  0  0  0
    3.3661    0.0491    0.0000 C   0  0  0  0  0  0  0  0  0  0  0  0
    2.3660   -0.9510    0.0000 C   0  0  0  0  0  0  0  0  0  0  0  0
    5.2320    2.5490    0.0000 C   0  0  1  0  0  0  0  0  0  0  0  0
    6.4641   -3.3170    0.0000 C   0  0  0  0  0  0  0  0  0  0  0  0
    2.3660   -3.6830    0.0000 C   0  0  0  0  0  0  0  0  0  0  0  0
    4.3660    2.0490    0.0000 C   0  0  2  0  0  0  0  0  0  0  0  0
    6.2320   -4.1830    0.0000 C   0  0  0  0  0  0  0  0  0  0  0  0
    6.9641    3.5490    0.0000 C   0  0  0  0  0  0  0  0  0  0  0  0
    4.3660    4.0490    0.0000 C   0  0  0  0  0  0  0  0  0  0  0  0
    7.8301    4.0490    0.0000 C   0  0  0  0  0  0  0  0  0  0  0  0
    4.3660    5.0490    0.0000 C   0  0  0  0  0  0  0  0  0  0  0  0
    6.2057   -0.3404    0.0000 H   0  0  0  0  0  0  0  0  0  0  0  0
    5.5155   -0.7389    0.0000 H   0  0  0  0  0  0  0  0  0  0  0  0
    4.6951    0.2390    0.0000 H   0  0  0  0  0  0  0  0  0  0  0  0
    3.2076   -0.5636    0.0000 H   0  0  0  0  0  0  0  0  0  0  0  0
    2.4514   -2.7604    0.0000 H   0  0  0  0  0  0  0  0  0  0  0  0
    6.0981    0.4290    0.0000 H   0  0  0  0  0  0  0  0  0  0  0  0
    3.9758   -4.5139    0.0000 H   0  0  0  0  0  0  0  0  0  0  0  0
    6.6350    1.7390    0.0000 H   0  0  0  0  0  0  0  0  0  0  0  0
    3.6761    0.5860    0.0000 H   0  0  0  0  0  0  0  0  0  0  0  0
    2.8292    0.3592    0.0000 H   0  0  0  0  0  0  0  0  0  0  0  0
    3.0560   -0.4878    0.0000 H   0  0  0  0  0  0  0  0  0  0  0  0
    2.9029   -0.6410    0.0000 H   0  0  0  0  0  0  0  0  0  0  0  0
    2.0560   -0.4140    0.0000 H   0  0  0  0  0  0  0  0  0  0  0  0
    1.8291   -1.2610    0.0000 H   0  0  0  0  0  0  0  0  0  0  0  0
    5.7690    2.8590    0.0000 H   0  0  0  0  0  0  0  0  0  0  0  0
    5.8441   -3.3170    0.0000 H   0  0  0  0  0  0  0  0  0  0  0  0
    6.4641   -3.9370    0.0000 H   0  0  0  0  0  0  0  0  0  0  0  0
    7.0841   -3.3170    0.0000 H   0  0  0  0  0  0  0  0  0  0  0  0
    2.3660   -3.0630    0.0000 H   0  0  0  0  0  0  0  0  0  0  0  0
    1.7460   -3.6830    0.0000 H   0  0  0  0  0  0  0  0  0  0  0  0
    2.3660   -4.3030    0.0000 H   0  0  0  0  0  0  0  0  0  0  0  0
    4.3660    2.6690    0.0000 H   0  0  0  0  0  0  0  0  0  0  0  0
    6.2320   -4.8030    0.0000 H   0  0  0  0  0  0  0  0  0  0  0  0
    6.8520   -4.1830    0.0000 H   0  0  0  0  0  0  0  0  0  0  0  0
    6.2320   -3.5630    0.0000 H   0  0  0  0  0  0  0  0  0  0  0  0
    7.4081   -0.4140    0.0000 H   0  0  0  0  0  0  0  0  0  0  0  0
    7.5010    0.8590    0.0000 H   0  0  0  0  0  0  0  0  0  0  0  0
    2.9630    2.2390    0.0000 H   0  0  0  0  0  0  0  0  0  0  0  0
    8.1401    3.5121    0.0000 H   0  0  0  0  0  0  0  0  0  0  0  0
    8.3670    4.3590    0.0000 H   0  0  0  0  0  0  0  0  0  0  0  0
    7.5201    4.5860    0.0000 H   0  0  0  0  0  0  0  0  0  0  0  0
    4.9860    5.0490    0.0000 H   0  0  0  0  0  0  0  0  0  0  0  0
    4.3660    5.6690    0.0000 H   0  0  0  0  0  0  0  0  0  0  0  0
    3.7460    5.0490    0.0000 H   0  0  0  0  0  0  0  0  0  0  0  0
  1 21  1  0  0  0  0
  1 23  1  0  0  0  0
 19  2  1  6  0  0  0
 29  2  1  6  0  0  0
 20  3  1  6  0  0  0
  3 47  1  0  0  0  0
 22  4  1  1  0  0  0
  4 48  1  0  0  0  0
 23  5  1  6  0  0  0
  5 50  1  0  0  0  0
  6 29  1  0  0  0  0
  6 38  1  0  0  0  0
  7 25  1  0  0  0  0
  7 69  1  0  0  0  0
  8 24  2  0  0  0  0
  9 26  2  0  0  0  0
 10 27  2  0  0  0  0
 11 28  2  0  0  0  0
 31 12  1  1  0  0  0
 12 70  1  0  0  0  0
 13 30  2  0  0  0  0
 32 14  1  1  0  0  0
 14 40  1  0  0  0  0
 35 15  1  1  0  0  0
 15 41  1  0  0  0  0
 38 16  1  6  0  0  0
 16 71  1  0  0  0  0
 17 40  2  0  0  0  0
 18 41  2  0  0  0  0
 19 20  1  0  0  0  0
 19 21  1  0  0  0  0
 19 24  1  0  0  0  0
 20 22  1  0  0  0  0
 20 26  1  0  0  0  0
 21 25  1  1  0  0  0
 21 27  1  0  0  0  0
 22 23  1  0  0  0  0
 22 28  1  0  0  0  0
 23 30  1  0  0  0  0
 24 33  1  0  0  0  0
 25 44  1  0  0  0  0
 25 45  1  0  0  0  0
 26 34  1  0  0  0  0
 27 36  1  0  0  0  0
 28 37  1  0  0  0  0
 29 31  1  0  0  0  0
 29 46  1  0  0  0  0
 30 39  1  0  0  0  0
 31 32  1  0  0  0  0
 31 49  1  0  0  0  0
 32 35  1  0  0  0  0
 32 51  1  0  0  0  0
 33 52  1  0  0  0  0
 33 53  1  0  0  0  0
 33 54  1  0  0  0  0
 34 55  1  0  0  0  0
 34 56  1  0  0  0  0
 34 57  1  0  0  0  0
 35 38  1  0  0  0  0
 35 58  1  0  0  0  0
 36 59  1  0  0  0  0
 36 60  1  0  0  0  0
 36 61  1  0  0  0  0
 37 62  1  0  0  0  0
 37 63  1  0  0  0  0
 37 64  1  0  0  0  0
 38 65  1  0  0  0  0
 39 66  1  0  0  0  0
 39 67  1  0  0  0  0
 39 68  1  0  0  0  0
 40 42  1  0  0  0  0
 41 43  1  0  0  0  0
 42 72  1  0  0  0  0
 42 73  1  0  0  0  0
 42 74  1  0  0  0  0
 43 75  1  0  0  0  0
 43 76  1  0  0  0  0
 43 77  1  0  0  0  0
M  END
> <PUBCHEM_COMPOUND_CID>
129639883

> <PUBCHEM_COMPOUND_CANONICALIZED>
1

> <PUBCHEM_CACTVS_COMPLEXITY>
1230

> <PUBCHEM_CACTVS_HBOND_ACCEPTOR>
18

> <PUBCHEM_CACTVS_HBOND_DONOR>
6

> <PUBCHEM_CACTVS_ROTATABLE_BOND>
12

> <PUBCHEM_CACTVS_SUBSKEYS>
AAADcfB4PgAAAAAAAAAAAAAAAAAAAAAAAAAkSAAAAAAAAAAAAAAAGgAACAAADFSwgAMCCAAABgAIAICQCAIAAAAAAAAAAAFAAAAREBYAAAQiQAAFIAAHAAHL7vzugAAAAAAAAAAAAAAAAAAAAAAAAAAAAA==

> <PUBCHEM_IUPAC_OPENEYE_NAME>
[(2S,3S,4S,5R,6R)-3-acetoxy-2,5-dihydroxy-6-[(2R,3S,4S,5R,6R)-2,3,4,5,6-pentaacetyl-4,5,6-trihydroxy-2-(hydroxymethyl)tetrahydropyran-3-yl]oxy-tetrahydropyran-4-yl] acetate

> <PUBCHEM_IUPAC_CAS_NAME>
acetic acid [(2S,3S,4S,5R,6R)-3-acetyloxy-2,5-dihydroxy-6-[[(2R,3S,4S,5R,6R)-2,3,4,5,6-pentaacetyl-4,5,6-trihydroxy-2-(hydroxymethyl)-3-oxanyl]oxy]-4-oxanyl] ester

> <PUBCHEM_IUPAC_NAME_MARKUP>
[(2<I>S</I>,3<I>S</I>,4<I>S</I>,5<I>R</I>,6<I>R</I>)-3-acetyloxy-2,5-dihydroxy-6-[(2<I>R</I>,3<I>S</I>,4<I>S</I>,5<I>R</I>,6<I>R</I>)-2,3,4,5,6-pentaacetyl-4,5,6-trihydroxy-2-(hydroxymethyl)oxan-3-yl]oxyoxan-4-yl] acetate

> <PUBCHEM_IUPAC_NAME>
[(2S,3S,4S,5R,6R)-3-acetyloxy-2,5-dihydroxy-6-[(2R,3S,4S,5R,6R)-2,3,4,5,6-pentaacetyl-4,5,6-trihydroxy-2-(hydroxymethyl)oxan-3-yl]oxyoxan-4-yl] acetate

> <PUBCHEM_IUPAC_SYSTEMATIC_NAME>
[(2S,3S,4S,5R,6R)-3-acetyloxy-2,5-bis(oxidanyl)-6-[(2R,3S,4S,5R,6R)-2,3,4,5,6-pentaethanoyl-2-(hydroxymethyl)-4,5,6-tris(oxidanyl)oxan-3-yl]oxy-oxan-4-yl] ethanoate

> <PUBCHEM_IUPAC_TRADITIONAL_NAME>
acetic acid [(2S,3S,4S,5R,6R)-3-acetoxy-2,5-dihydroxy-6-[(2R,3S,4S,5R,6R)-2,3,4,5,6-pentaacetyl-4,5,6-trihydroxy-2-methylol-tetrahydropyran-3-yl]oxy-tetrahydropyran-4-yl] ester

> <PUBCHEM_IUPAC_INCHI>
InChI=1S/C25H34O18/c1-9(27)21(8-26)24(12(4)30,22(36,10(2)28)23(37,11(3)29)25(38,43-21)13(5)31)42-20-16(34)17(39-14(6)32)18(19(35)41-20)40-15(7)33/h16-20,26,34-38H,8H2,1-7H3/t16-,17+,18+,19+,20+,21+,22+,23+,24-,25+/m1/s1

> <PUBCHEM_IUPAC_INCHIKEY>
GSCVPVBKNDICSJ-RMHHYOLDSA-N

> <PUBCHEM_XLOGP3_AA>
-4.7

> <PUBCHEM_EXACT_MASS>
622.17451423

> <PUBCHEM_MOLECULAR_FORMULA>
C25H34O18

> <PUBCHEM_MOLECULAR_WEIGHT>
622.5

> <PUBCHEM_OPENEYE_CAN_SMILES>
CC(=O)C1(C(C(C(C(O1)(C(=O)C)O)(C(=O)C)O)(C(=O)C)O)(C(=O)C)OC2C(C(C(C(O2)O)OC(=O)C)OC(=O)C)O)CO

> <PUBCHEM_OPENEYE_ISO_SMILES>
CC(=O)[C@]1([C@@]([C@@]([C@]([C@@](O1)(C(=O)C)O)(C(=O)C)O)(C(=O)C)O)(C(=O)C)O[C@H]2[C@@H]([C@@H]([C@@H]([C@H](O2)O)OC(=O)C)OC(=O)C)O)CO

> <PUBCHEM_CACTVS_TPSA>
287

> <PUBCHEM_MONOISOTOPIC_WEIGHT>
622.17451423

> <PUBCHEM_TOTAL_CHARGE>
0

> <PUBCHEM_HEAVY_ATOM_COUNT>
43

> <PUBCHEM_ATOM_DEF_STEREO_COUNT>
10

> <PUBCHEM_ATOM_UDEF_STEREO_COUNT>
0

> <PUBCHEM_BOND_DEF_STEREO_COUNT>
0

> <PUBCHEM_BOND_UDEF_STEREO_COUNT>
0

> <PUBCHEM_ISOTOPIC_ATOM_COUNT>
0

> <PUBCHEM_COMPONENT_COUNT>
1

> <PUBCHEM_CACTVS_TAUTO_COUNT>
-1

> <PUBCHEM_COORDINATE_TYPE>
1
5
255

> <PUBCHEM_BONDANNOTATIONS>
31  12  5
32  14  5
35  15  5
38  16  6
19  2  6
29  2  6
21  25  5
20  3  6
22  4  5
23  5  6

$$$$
