 
  -OEChem-10192104312D

 16 16  0     1  0  0  0  0  0999 V2000
    5.0929   -0.4197    0.0000 O   0  0  0  0  0  0  0  0  0  0  0  0
    5.5929    1.1191    0.0000 O   0  0  0  0  0  0  0  0  0  0  0  0
    2.5896    0.5282    0.0000 O   0  0  0  0  0  0  0  0  0  0  0  0
    3.1249   -1.1191    0.0000 O   0  0  0  0  0  0  0  0  0  0  0  0
    7.5961    0.5282    0.0000 O   0  0  0  0  0  0  0  0  0  0  0  0
    4.2839    0.1681    0.0000 C   0  0  3  0  0  0  0  0  0  0  0  0
    4.5929    1.1191    0.0000 C   0  0  0  0  0  0  0  0  0  0  0  0
    5.9019    0.1681    0.0000 C   0  0  1  0  0  0  0  0  0  0  0  0
    3.3328   -0.1410    0.0000 C   0  0  0  0  0  0  0  0  0  0  0  0
    6.8530   -0.1410    0.0000 C   0  0  0  0  0  0  0  0  0  0  0  0
    4.1869   -0.4443    0.0000 H   0  0  0  0  0  0  0  0  0  0  0  0
    4.6577    1.7357    0.0000 H   0  0  0  0  0  0  0  0  0  0  0  0
    3.9864    1.2480    0.0000 H   0  0  0  0  0  0  0  0  0  0  0  0
    5.9989   -0.4443    0.0000 H   0  0  0  0  0  0  0  0  0  0  0  0
    6.9818   -0.7474    0.0000 H   0  0  0  0  0  0  0  0  0  0  0  0
    2.0000    0.3366    0.0000 H   0  0  0  0  0  0  0  0  0  0  0  0
  1  6  1  0  0  0  0
  1  8  1  0  0  0  0
  2  7  1  0  0  0  0
  2  8  1  0  0  0  0
  3  9  1  0  0  0  0
  3 16  1  0  0  0  0
  4  9  2  0  0  0  0
  5 10  2  0  0  0  0
  6  7  1  0  0  0  0
  6  9  1  0  0  0  0
  6 11  1  0  0  0  0
  7 12  1  0  0  0  0
  7 13  1  0  0  0  0
  8 10  1  1  0  0  0
  8 14  1  0  0  0  0
 10 15  1  0  0  0  0
M  END
> <PUBCHEM_COMPOUND_CID>
18651742

> <PUBCHEM_COMPOUND_CANONICALIZED>
1

> <PUBCHEM_CACTVS_COMPLEXITY>
154

> <PUBCHEM_CACTVS_HBOND_ACCEPTOR>
5

> <PUBCHEM_CACTVS_HBOND_DONOR>
1

> <PUBCHEM_CACTVS_ROTATABLE_BOND>
2

> <PUBCHEM_CACTVS_SUBSKEYS>
AAADcYBgOAAAAAAAAAAAAAAAAAAAASAAAAAAAAAAAAAAAAAAAAAAGgAACAAACBSwgAMACAAABgAIAAiQiAIAAAAAAAAAAAFAAAARAAQAAAQiQAABIAAHAAAAAAAAAAAAAAAAAAAAAAAAAAAAAAAAAAAAAA==

> <PUBCHEM_IUPAC_OPENEYE_NAME>
(2R)-2-formyl-1,3-dioxolane-4-carboxylic acid

> <PUBCHEM_IUPAC_CAS_NAME>
(2R)-2-formyl-1,3-dioxolane-4-carboxylic acid

> <PUBCHEM_IUPAC_NAME_MARKUP>
(2<I>R</I>)-2-formyl-1,3-dioxolane-4-carboxylic acid

> <PUBCHEM_IUPAC_NAME>
(2R)-2-formyl-1,3-dioxolane-4-carboxylic acid

> <PUBCHEM_IUPAC_SYSTEMATIC_NAME>
(2R)-2-methanoyl-1,3-dioxolane-4-carboxylic acid

> <PUBCHEM_IUPAC_TRADITIONAL_NAME>
(2R)-2-formyl-1,3-dioxolane-4-carboxylic acid

> <PUBCHEM_IUPAC_INCHI>
InChI=1S/C5H6O5/c6-1-4-9-2-3(10-4)5(7)8/h1,3-4H,2H2,(H,7,8)/t3?,4-/m1/s1

> <PUBCHEM_IUPAC_INCHIKEY>
PAOYUOBHPMJZDB-SRBOSORUSA-N

> <PUBCHEM_XLOGP3_AA>
-1

> <PUBCHEM_EXACT_MASS>
146.02152329

> <PUBCHEM_MOLECULAR_FORMULA>
C5H6O5

> <PUBCHEM_MOLECULAR_WEIGHT>
146.10

> <PUBCHEM_OPENEYE_CAN_SMILES>
C1C(OC(O1)C=O)C(=O)O

> <PUBCHEM_OPENEYE_ISO_SMILES>
C1C(O[C@@H](O1)C=O)C(=O)O

> <PUBCHEM_CACTVS_TPSA>
72.8

> <PUBCHEM_MONOISOTOPIC_WEIGHT>
146.02152329

> <PUBCHEM_TOTAL_CHARGE>
0

> <PUBCHEM_HEAVY_ATOM_COUNT>
10

> <PUBCHEM_ATOM_DEF_STEREO_COUNT>
1

> <PUBCHEM_ATOM_UDEF_STEREO_COUNT>
1

> <PUBCHEM_BOND_DEF_STEREO_COUNT>
0

> <PUBCHEM_BOND_UDEF_STEREO_COUNT>
0

> <PUBCHEM_ISOTOPIC_ATOM_COUNT>
0

> <PUBCHEM_COMPONENT_COUNT>
1

> <PUBCHEM_CACTVS_TAUTO_COUNT>
-1

> <PUBCHEM_COORDINATE_TYPE>
1
5
255

> <PUBCHEM_BONDANNOTATIONS>
6  9  3
8  10  5

$$$$
