 
  -OEChem-10192103592D

 31 30  0     1  0  0  0  0  0999 V2000
    6.0010    0.0000    0.0000 O   0  0  0  0  0  0  0  0  0  0  0  0
    2.5369   -0.0000    0.0000 O   0  0  0  0  0  0  0  0  0  0  0  0
    3.4030    1.5000    0.0000 O   0  0  0  0  0  0  0  0  0  0  0  0
    6.8671    1.5000    0.0000 O   0  0  0  0  0  0  0  0  0  0  0  0
    8.5991    1.5000    0.0000 O   0  0  0  0  0  0  0  0  0  0  0  0
    4.2690    0.0000    0.0000 C   0  0  3  0  0  0  0  0  0  0  0  0
    5.1350    0.5000    0.0000 C   0  0  2  0  0  0  0  0  0  0  0  0
    4.2690   -1.0000    0.0000 C   0  0  0  0  0  0  0  0  0  0  0  0
    5.1350    1.5000    0.0000 C   0  0  0  0  0  0  0  0  0  0  0  0
    3.4030    0.5000    0.0000 C   0  0  0  0  0  0  0  0  0  0  0  0
    3.4030   -1.5000    0.0000 C   0  0  0  0  0  0  0  0  0  0  0  0
    6.8671    0.5000    0.0000 C   0  0  0  0  0  0  0  0  0  0  0  0
    7.7331   -0.0000    0.0000 C   0  0  0  0  0  0  0  0  0  0  0  0
    8.5991    0.5000    0.0000 C   0  0  0  0  0  0  0  0  0  0  0  0
    9.4651   -0.0000    0.0000 C   0  0  0  0  0  0  0  0  0  0  0  0
    4.2690    0.6200    0.0000 H   0  0  0  0  0  0  0  0  0  0  0  0
    5.1350   -0.1200    0.0000 H   0  0  0  0  0  0  0  0  0  0  0  0
    4.4810   -1.5826    0.0000 H   0  0  0  0  0  0  0  0  0  0  0  0
    4.8796   -0.8923    0.0000 H   0  0  0  0  0  0  0  0  0  0  0  0
    5.7550    1.5000    0.0000 H   0  0  0  0  0  0  0  0  0  0  0  0
    5.1350    2.1200    0.0000 H   0  0  0  0  0  0  0  0  0  0  0  0
    4.5150    1.5000    0.0000 H   0  0  0  0  0  0  0  0  0  0  0  0
    3.0930   -0.9631    0.0000 H   0  0  0  0  0  0  0  0  0  0  0  0
    2.8660   -1.8100    0.0000 H   0  0  0  0  0  0  0  0  0  0  0  0
    3.7130   -2.0369    0.0000 H   0  0  0  0  0  0  0  0  0  0  0  0
    7.3346   -0.4749    0.0000 H   0  0  0  0  0  0  0  0  0  0  0  0
    8.1316   -0.4749    0.0000 H   0  0  0  0  0  0  0  0  0  0  0  0
    2.0000    0.3100    0.0000 H   0  0  0  0  0  0  0  0  0  0  0  0
    9.1551   -0.5369    0.0000 H   0  0  0  0  0  0  0  0  0  0  0  0
   10.0021   -0.3100    0.0000 H   0  0  0  0  0  0  0  0  0  0  0  0
    9.7751    0.5369    0.0000 H   0  0  0  0  0  0  0  0  0  0  0  0
  7  1  1  6  0  0  0
  1 12  1  0  0  0  0
  2 10  1  0  0  0  0
  2 28  1  0  0  0  0
  3 10  2  0  0  0  0
  4 12  2  0  0  0  0
  5 14  2  0  0  0  0
  6  7  1  0  0  0  0
  6  8  1  0  0  0  0
  6 10  1  0  0  0  0
  6 16  1  0  0  0  0
  7  9  1  0  0  0  0
  7 17  1  0  0  0  0
  8 11  1  0  0  0  0
  8 18  1  0  0  0  0
  8 19  1  0  0  0  0
  9 20  1  0  0  0  0
  9 21  1  0  0  0  0
  9 22  1  0  0  0  0
 11 23  1  0  0  0  0
 11 24  1  0  0  0  0
 11 25  1  0  0  0  0
 12 13  1  0  0  0  0
 13 14  1  0  0  0  0
 13 26  1  0  0  0  0
 13 27  1  0  0  0  0
 14 15  1  0  0  0  0
 15 29  1  0  0  0  0
 15 30  1  0  0  0  0
 15 31  1  0  0  0  0
M  END
> <PUBCHEM_COMPOUND_CID>
87451605

> <PUBCHEM_COMPOUND_CANONICALIZED>
1

> <PUBCHEM_CACTVS_COMPLEXITY>
259

> <PUBCHEM_CACTVS_HBOND_ACCEPTOR>
5

> <PUBCHEM_CACTVS_HBOND_DONOR>
1

> <PUBCHEM_CACTVS_ROTATABLE_BOND>
7

> <PUBCHEM_CACTVS_SUBSKEYS>
AAADceBwOAAAAAAAAAAAAAAAAAAAAAAAAAAAAAAAAAAAAAAAAAAAGgAACAAADRSggAICCAAABgAIAICQCAAAAAAAAAAAAAEAAAAAABYIAAACQAAFIAAAAAAAAAAKAAAAAAAAAAAAAAAAAAAAAAAAAAAAAA==

> <PUBCHEM_IUPAC_OPENEYE_NAME>
(3S)-2-ethyl-3-(3-oxobutanoyloxy)butanoic acid

> <PUBCHEM_IUPAC_CAS_NAME>
(3S)-3-(1,3-dioxobutoxy)-2-ethylbutanoic acid

> <PUBCHEM_IUPAC_NAME_MARKUP>
(3<I>S</I>)-2-ethyl-3-(3-oxobutanoyloxy)butanoic acid

> <PUBCHEM_IUPAC_NAME>
(3S)-2-ethyl-3-(3-oxobutanoyloxy)butanoic acid

> <PUBCHEM_IUPAC_SYSTEMATIC_NAME>
(3S)-2-ethyl-3-(3-oxidanylidenebutanoyloxy)butanoic acid

> <PUBCHEM_IUPAC_TRADITIONAL_NAME>
(3S)-3-acetoacetyloxy-2-ethyl-butyric acid

> <PUBCHEM_IUPAC_INCHI>
InChI=1S/C10H16O5/c1-4-8(10(13)14)7(3)15-9(12)5-6(2)11/h7-8H,4-5H2,1-3H3,(H,13,14)/t7-,8?/m0/s1

> <PUBCHEM_IUPAC_INCHIKEY>
OHSQKXUODMASQK-JAMMHHFISA-N

> <PUBCHEM_XLOGP3_AA>
0.8

> <PUBCHEM_EXACT_MASS>
216.09977361

> <PUBCHEM_MOLECULAR_FORMULA>
C10H16O5

> <PUBCHEM_MOLECULAR_WEIGHT>
216.23

> <PUBCHEM_OPENEYE_CAN_SMILES>
CCC(C(C)OC(=O)CC(=O)C)C(=O)O

> <PUBCHEM_OPENEYE_ISO_SMILES>
CCC([C@H](C)OC(=O)CC(=O)C)C(=O)O

> <PUBCHEM_CACTVS_TPSA>
80.7

> <PUBCHEM_MONOISOTOPIC_WEIGHT>
216.09977361

> <PUBCHEM_TOTAL_CHARGE>
0

> <PUBCHEM_HEAVY_ATOM_COUNT>
15

> <PUBCHEM_ATOM_DEF_STEREO_COUNT>
1

> <PUBCHEM_ATOM_UDEF_STEREO_COUNT>
1

> <PUBCHEM_BOND_DEF_STEREO_COUNT>
0

> <PUBCHEM_BOND_UDEF_STEREO_COUNT>
0

> <PUBCHEM_ISOTOPIC_ATOM_COUNT>
0

> <PUBCHEM_COMPONENT_COUNT>
1

> <PUBCHEM_CACTVS_TAUTO_COUNT>
-1

> <PUBCHEM_COORDINATE_TYPE>
1
5
255

> <PUBCHEM_BONDANNOTATIONS>
7  1  6
6  8  3

$$$$
