 
  -OEChem-10192104372D

 80 81  0     1  0  0  0  0  0999 V2000
    6.0010   -1.5000    0.0000 O   0  0  0  0  0  0  0  0  0  0  0  0
    7.7331    0.5000    0.0000 O   0  0  0  0  0  0  0  0  0  0  0  0
    5.1350   -0.0000    0.0000 O   0  0  0  0  0  0  0  0  0  0  0  0
    7.7331   -2.5000    0.0000 O   0  0  0  0  0  0  0  0  0  0  0  0
    9.4651   -1.5000    0.0000 O   0  0  0  0  0  0  0  0  0  0  0  0
    9.4651    0.5000    0.0000 O   0  0  0  0  0  0  0  0  0  0  0  0
    4.2690   -2.5000    0.0000 O   0  0  0  0  0  0  0  0  0  0  0  0
    2.5369   -1.5000    0.0000 O   0  0  0  0  0  0  0  0  0  0  0  0
    2.5369    0.5000    0.0000 O   0  0  0  0  0  0  0  0  0  0  0  0
    6.0010    1.5000    0.0000 O   0  0  0  0  0  0  0  0  0  0  0  0
    5.1350    2.0000    0.0000 O   0  0  0  0  0  0  0  0  0  0  0  0
    6.8671   -1.0000    0.0000 C   0  0  1  0  0  0  0  0  0  0  0  0
    7.7331   -1.5000    0.0000 C   0  0  1  0  0  0  0  0  0  0  0  0
    6.8671    0.0000    0.0000 C   0  0  1  0  0  0  0  0  0  0  0  0
    8.5991   -1.0000    0.0000 C   0  0  2  0  0  0  0  0  0  0  0  0
    5.1350   -1.0000    0.0000 C   0  0  2  0  0  0  0  0  0  0  0  0
    8.5991    0.0000    0.0000 C   0  0  2  0  0  0  0  0  0  0  0  0
    4.2690   -1.5000    0.0000 C   0  0  1  0  0  0  0  0  0  0  0  0
    3.4030   -1.0000    0.0000 C   0  0  2  0  0  0  0  0  0  0  0  0
    3.4030   -0.0000    0.0000 C   0  0  2  0  0  0  0  0  0  0  0  0
    4.2690    0.5000    0.0000 C   0  0  1  0  0  0  0  0  0  0  0  0
    6.0010    0.5000    0.0000 C   0  0  0  0  0  0  0  0  0  0  0  0
    4.2690    1.5000    0.0000 C   0  0  0  0  0  0  0  0  0  0  0  0
    8.5991   -3.0000    0.0000 C   0  0  0  0  0  0  0  0  0  0  0  0
   10.3312   -1.0000    0.0000 C   0  0  0  0  0  0  0  0  0  0  0  0
    9.4651    1.5000    0.0000 C   0  0  0  0  0  0  0  0  0  0  0  0
    6.8671    2.0000    0.0000 C   0  0  0  0  0  0  0  0  0  0  0  0
    8.5991   -4.0000    0.0000 C   0  0  0  0  0  0  0  0  0  0  0  0
   11.1972   -1.5000    0.0000 C   0  0  0  0  0  0  0  0  0  0  0  0
    5.1350    3.0000    0.0000 C   0  0  0  0  0  0  0  0  0  0  0  0
   10.3312    2.0000    0.0000 C   0  0  0  0  0  0  0  0  0  0  0  0
    6.8671    3.0000    0.0000 C   0  0  0  0  0  0  0  0  0  0  0  0
    9.4651   -4.5000    0.0000 C   0  0  0  0  0  0  0  0  0  0  0  0
   12.0632   -1.0000    0.0000 C   0  0  0  0  0  0  0  0  0  0  0  0
    6.0010    3.5000    0.0000 C   0  0  0  0  0  0  0  0  0  0  0  0
   10.3312    3.0000    0.0000 C   0  0  0  0  0  0  0  0  0  0  0  0
    7.7331    3.5000    0.0000 C   0  0  0  0  0  0  0  0  0  0  0  0
    6.0010    4.5000    0.0000 C   0  0  0  0  0  0  0  0  0  0  0  0
    6.3301   -0.6900    0.0000 H   0  0  0  0  0  0  0  0  0  0  0  0
    7.1962   -1.8100    0.0000 H   0  0  0  0  0  0  0  0  0  0  0  0
    6.8671    0.6200    0.0000 H   0  0  0  0  0  0  0  0  0  0  0  0
    8.5991   -1.6200    0.0000 H   0  0  0  0  0  0  0  0  0  0  0  0
    5.1350   -1.6200    0.0000 H   0  0  0  0  0  0  0  0  0  0  0  0
    8.5991    0.6200    0.0000 H   0  0  0  0  0  0  0  0  0  0  0  0
    3.7320   -1.8100    0.0000 H   0  0  0  0  0  0  0  0  0  0  0  0
    2.8660   -0.6900    0.0000 H   0  0  0  0  0  0  0  0  0  0  0  0
    3.4030    0.6200    0.0000 H   0  0  0  0  0  0  0  0  0  0  0  0
    4.8059    0.8100    0.0000 H   0  0  0  0  0  0  0  0  0  0  0  0
    5.3905    0.6077    0.0000 H   0  0  0  0  0  0  0  0  0  0  0  0
    5.7890   -0.0826    0.0000 H   0  0  0  0  0  0  0  0  0  0  0  0
    4.0569    2.0826    0.0000 H   0  0  0  0  0  0  0  0  0  0  0  0
    3.6584    1.3923    0.0000 H   0  0  0  0  0  0  0  0  0  0  0  0
    3.7320   -2.8100    0.0000 H   0  0  0  0  0  0  0  0  0  0  0  0
    2.0000   -1.1900    0.0000 H   0  0  0  0  0  0  0  0  0  0  0  0
    9.2097   -3.1077    0.0000 H   0  0  0  0  0  0  0  0  0  0  0  0
    8.8112   -2.4174    0.0000 H   0  0  0  0  0  0  0  0  0  0  0  0
    2.5369    1.1200    0.0000 H   0  0  0  0  0  0  0  0  0  0  0  0
   10.7297   -0.5251    0.0000 H   0  0  0  0  0  0  0  0  0  0  0  0
    9.9326   -0.5251    0.0000 H   0  0  0  0  0  0  0  0  0  0  0  0
    9.2531    2.0826    0.0000 H   0  0  0  0  0  0  0  0  0  0  0  0
    8.8546    1.3923    0.0000 H   0  0  0  0  0  0  0  0  0  0  0  0
    7.0791    1.4174    0.0000 H   0  0  0  0  0  0  0  0  0  0  0  0
    7.4776    2.1077    0.0000 H   0  0  0  0  0  0  0  0  0  0  0  0
    8.0622   -4.3100    0.0000 H   0  0  0  0  0  0  0  0  0  0  0  0
   11.1972   -2.1200    0.0000 H   0  0  0  0  0  0  0  0  0  0  0  0
    4.9230    3.5826    0.0000 H   0  0  0  0  0  0  0  0  0  0  0  0
    4.5244    2.8923    0.0000 H   0  0  0  0  0  0  0  0  0  0  0  0
   10.8681    1.6900    0.0000 H   0  0  0  0  0  0  0  0  0  0  0  0
    6.3301    3.3100    0.0000 H   0  0  0  0  0  0  0  0  0  0  0  0
    9.4651   -5.1200    0.0000 H   0  0  0  0  0  0  0  0  0  0  0  0
   10.0021   -4.1900    0.0000 H   0  0  0  0  0  0  0  0  0  0  0  0
    6.5380    3.1900    0.0000 H   0  0  0  0  0  0  0  0  0  0  0  0
   12.6002   -1.3100    0.0000 H   0  0  0  0  0  0  0  0  0  0  0  0
   12.0632   -0.3800    0.0000 H   0  0  0  0  0  0  0  0  0  0  0  0
   10.8681    3.3100    0.0000 H   0  0  0  0  0  0  0  0  0  0  0  0
    9.7942    3.3100    0.0000 H   0  0  0  0  0  0  0  0  0  0  0  0
    8.2700    3.1900    0.0000 H   0  0  0  0  0  0  0  0  0  0  0  0
    7.7331    4.1200    0.0000 H   0  0  0  0  0  0  0  0  0  0  0  0
    6.5380    4.8100    0.0000 H   0  0  0  0  0  0  0  0  0  0  0  0
    5.4641    4.8100    0.0000 H   0  0  0  0  0  0  0  0  0  0  0  0
 12  1  1  6  0  0  0
 16  1  1  1  0  0  0
  2 14  1  0  0  0  0
  2 17  1  0  0  0  0
  3 16  1  0  0  0  0
  3 21  1  0  0  0  0
 13  4  1  1  0  0  0
  4 24  1  0  0  0  0
 15  5  1  6  0  0  0
  5 25  1  0  0  0  0
 17  6  1  6  0  0  0
  6 26  1  0  0  0  0
 18  7  1  6  0  0  0
  7 53  1  0  0  0  0
 19  8  1  1  0  0  0
  8 54  1  0  0  0  0
 20  9  1  1  0  0  0
  9 57  1  0  0  0  0
 10 22  1  0  0  0  0
 10 27  1  0  0  0  0
 11 23  1  0  0  0  0
 11 30  1  0  0  0  0
 12 13  1  0  0  0  0
 12 14  1  0  0  0  0
 12 39  1  0  0  0  0
 13 15  1  0  0  0  0
 13 40  1  0  0  0  0
 14 22  1  1  0  0  0
 14 41  1  0  0  0  0
 15 17  1  0  0  0  0
 15 42  1  0  0  0  0
 16 18  1  0  0  0  0
 16 43  1  0  0  0  0
 17 44  1  0  0  0  0
 18 19  1  0  0  0  0
 18 45  1  0  0  0  0
 19 20  1  0  0  0  0
 19 46  1  0  0  0  0
 20 21  1  0  0  0  0
 20 47  1  0  0  0  0
 21 23  1  1  0  0  0
 21 48  1  0  0  0  0
 22 49  1  0  0  0  0
 22 50  1  0  0  0  0
 23 51  1  0  0  0  0
 23 52  1  0  0  0  0
 24 28  1  0  0  0  0
 24 55  1  0  0  0  0
 24 56  1  0  0  0  0
 25 29  1  0  0  0  0
 25 58  1  0  0  0  0
 25 59  1  0  0  0  0
 26 31  1  0  0  0  0
 26 60  1  0  0  0  0
 26 61  1  0  0  0  0
 27 32  1  0  0  0  0
 27 62  1  0  0  0  0
 27 63  1  0  0  0  0
 28 33  2  0  0  0  0
 28 64  1  0  0  0  0
 29 34  2  0  0  0  0
 29 65  1  0  0  0  0
 30 35  1  0  0  0  0
 30 66  1  0  0  0  0
 30 67  1  0  0  0  0
 31 36  2  0  0  0  0
 31 68  1  0  0  0  0
 32 37  2  0  0  0  0
 32 69  1  0  0  0  0
 33 70  1  0  0  0  0
 33 71  1  0  0  0  0
 34 73  1  0  0  0  0
 34 74  1  0  0  0  0
 35 38  2  0  0  0  0
 35 72  1  0  0  0  0
 36 75  1  0  0  0  0
 36 76  1  0  0  0  0
 37 77  1  0  0  0  0
 37 78  1  0  0  0  0
 38 79  1  0  0  0  0
 38 80  1  0  0  0  0
M  END
> <PUBCHEM_COMPOUND_CID>
69993246

> <PUBCHEM_COMPOUND_CANONICALIZED>
1

> <PUBCHEM_CACTVS_COMPLEXITY>
732

> <PUBCHEM_CACTVS_HBOND_ACCEPTOR>
11

> <PUBCHEM_CACTVS_HBOND_DONOR>
3

> <PUBCHEM_CACTVS_ROTATABLE_BOND>
19

> <PUBCHEM_CACTVS_SUBSKEYS>
AAADcfB4PAAAAAAAAAAAAAAAAAAAAAAAAAAkSAAAAAAAAAAAAAAAGgAACAAACBSwgAMACAAABgCAACBCAAAAAAAAAAAIAAAAAAARFAIAIQAiQAAFAAAHIAHAYAwAAAAAAAAAAAAAAAAAAAAAAAAAAAAAAA==

> <PUBCHEM_IUPAC_OPENEYE_NAME>
(2R,3R,4S,5R,6S)-2-(allyloxymethyl)-6-[(2R,3R,4S,5R,6S)-4,5,6-triallyloxy-2-(allyloxymethyl)tetrahydropyran-3-yl]oxy-tetrahydropyran-3,4,5-triol

> <PUBCHEM_IUPAC_CAS_NAME>
(2R,3R,4S,5R,6S)-2-(prop-2-enoxymethyl)-6-[[(2R,3R,4S,5R,6S)-4,5,6-tris(prop-2-enoxy)-2-(prop-2-enoxymethyl)-3-oxanyl]oxy]oxane-3,4,5-triol

> <PUBCHEM_IUPAC_NAME_MARKUP>
(2<I>R</I>,3<I>R</I>,4<I>S</I>,5<I>R</I>,6<I>S</I>)-2-(prop-2-enoxymethyl)-6-[(2<I>R</I>,3<I>R</I>,4<I>S</I>,5<I>R</I>,6<I>S</I>)-4,5,6-tris(prop-2-enoxy)-2-(prop-2-enoxymethyl)oxan-3-yl]oxyoxane-3,4,5-triol

> <PUBCHEM_IUPAC_NAME>
(2R,3R,4S,5R,6S)-2-(prop-2-enoxymethyl)-6-[(2R,3R,4S,5R,6S)-4,5,6-tris(prop-2-enoxy)-2-(prop-2-enoxymethyl)oxan-3-yl]oxyoxane-3,4,5-triol

> <PUBCHEM_IUPAC_SYSTEMATIC_NAME>
(2R,3R,4S,5R,6S)-2-(prop-2-enoxymethyl)-6-[(2R,3R,4S,5R,6S)-4,5,6-tris(prop-2-enoxy)-2-(prop-2-enoxymethyl)oxan-3-yl]oxy-oxane-3,4,5-triol

> <PUBCHEM_IUPAC_TRADITIONAL_NAME>
(2R,3R,4S,5R,6S)-2-(allyloxymethyl)-6-[(2R,3R,4S,5R,6S)-4,5,6-triallyloxy-2-(allyloxymethyl)tetrahydropyran-3-yl]oxy-tetrahydropyran-3,4,5-triol

> <PUBCHEM_IUPAC_INCHI>
InChI=1S/C27H42O11/c1-6-11-31-16-18-20(28)21(29)22(30)26(36-18)38-23-19(17-32-12-7-2)37-27(35-15-10-5)25(34-14-9-4)24(23)33-13-8-3/h6-10,18-30H,1-5,11-17H2/t18-,19-,20+,21+,22-,23-,24+,25-,26+,27+/m1/s1

> <PUBCHEM_IUPAC_INCHIKEY>
CDPGTFBSVRAMLR-FCROXVJCSA-N

> <PUBCHEM_XLOGP3_AA>
0.6

> <PUBCHEM_EXACT_MASS>
542.27271215

> <PUBCHEM_MOLECULAR_FORMULA>
C27H42O11

> <PUBCHEM_MOLECULAR_WEIGHT>
542.6

> <PUBCHEM_OPENEYE_CAN_SMILES>
C=CCOCC1C(C(C(C(O1)OC2C(OC(C(C2OCC=C)OCC=C)OCC=C)COCC=C)O)O)O

> <PUBCHEM_OPENEYE_ISO_SMILES>
C=CCOC[C@@H]1[C@@H]([C@@H]([C@H]([C@@H](O1)O[C@@H]2[C@H](O[C@@H]([C@@H]([C@H]2OCC=C)OCC=C)OCC=C)COCC=C)O)O)O

> <PUBCHEM_CACTVS_TPSA>
135

> <PUBCHEM_MONOISOTOPIC_WEIGHT>
542.27271215

> <PUBCHEM_TOTAL_CHARGE>
0

> <PUBCHEM_HEAVY_ATOM_COUNT>
38

> <PUBCHEM_ATOM_DEF_STEREO_COUNT>
10

> <PUBCHEM_ATOM_UDEF_STEREO_COUNT>
0

> <PUBCHEM_BOND_DEF_STEREO_COUNT>
0

> <PUBCHEM_BOND_UDEF_STEREO_COUNT>
0

> <PUBCHEM_ISOTOPIC_ATOM_COUNT>
0

> <PUBCHEM_COMPONENT_COUNT>
1

> <PUBCHEM_CACTVS_TAUTO_COUNT>
-1

> <PUBCHEM_COORDINATE_TYPE>
1
5
255

> <PUBCHEM_BONDANNOTATIONS>
12  1  6
16  1  5
14  22  5
21  23  5
13  4  5
15  5  6
17  6  6
18  7  6
19  8  5
20  9  5

$$$$
