 
  -OEChem-10192103332D

 66 69  0     1  0  0  0  0  0999 V2000
    5.7068    0.8068    0.0000 O   0  0  0  0  0  0  0  0  0  0  0  0
    6.9959    1.9635    0.0000 O   0  0  0  0  0  0  0  0  0  0  0  0
    5.3496    2.5016    0.0000 O   0  0  0  0  0  0  0  0  0  0  0  0
    6.3840   -2.2200    0.0000 O   0  0  0  0  0  0  0  0  0  0  0  0
    4.6520   -2.2200    0.0000 O   0  0  0  0  0  0  0  0  0  0  0  0
    3.7498    0.3943    0.0000 O   0  0  0  0  0  0  0  0  0  0  0  0
    2.4141    1.8829    0.0000 O   0  0  0  0  0  0  0  0  0  0  0  0
    3.0354    3.7840    0.0000 O   0  0  0  0  0  0  0  0  0  0  0  0
    6.3840   -4.2200    0.0000 O   0  0  0  0  0  0  0  0  0  0  0  0
    4.6520   -5.2200    0.0000 O   0  0  0  0  0  0  0  0  0  0  0  0
    2.9199   -4.2200    0.0000 O   0  0  0  0  0  0  0  0  0  0  0  0
    4.3246    4.9407    0.0000 O   0  0  0  0  0  0  0  0  0  0  0  0
    2.9199   -1.2200    0.0000 O   0  0  0  0  0  0  0  0  0  0  0  0
    7.3531    0.2687    0.0000 C   0  0  1  0  0  0  0  0  0  0  0  0
    8.3316    0.4749    0.0000 C   0  0  1  0  0  0  0  0  0  0  0  0
    6.6853    1.0130    0.0000 C   0  0  2  0  0  0  0  0  0  0  0  0
    7.2501   -0.7200    0.0000 C   0  0  0  0  0  0  0  0  0  0  0  0
    8.8249   -0.3881    0.0000 C   0  0  0  0  0  0  0  0  0  0  0  0
    8.1578   -1.1252    0.0000 C   0  0  0  0  0  0  0  0  0  0  0  0
    5.0389    1.5511    0.0000 C   0  0  2  0  0  0  0  0  0  0  0  0
    6.3840   -1.2200    0.0000 C   0  0  0  0  0  0  0  0  0  0  0  0
    8.6423    1.4254    0.0000 C   0  0  0  0  0  0  0  0  0  0  0  0
    4.0604    1.3449    0.0000 C   0  0  1  0  0  0  0  0  0  0  0  0
    3.3926    2.0892    0.0000 C   0  0  2  0  0  0  0  0  0  0  0  0
    3.7032    3.0397    0.0000 C   0  0  1  0  0  0  0  0  0  0  0  0
    4.6817    3.2459    0.0000 C   0  0  1  0  0  0  0  0  0  0  0  0
    5.5180   -2.7200    0.0000 C   0  0  2  0  0  0  0  0  0  0  0  0
    5.5180   -3.7200    0.0000 C   0  0  1  0  0  0  0  0  0  0  0  0
    4.6520   -4.2200    0.0000 C   0  0  2  0  0  0  0  0  0  0  0  0
    3.7860   -3.7200    0.0000 C   0  0  1  0  0  0  0  0  0  0  0  0
    3.7860   -2.7200    0.0000 C   0  0  1  0  0  0  0  0  0  0  0  0
    7.9744    2.1697    0.0000 C   0  0  0  0  0  0  0  0  0  0  0  0
    4.9924    4.1964    0.0000 C   0  0  0  0  0  0  0  0  0  0  0  0
    2.9199   -2.2200    0.0000 C   0  0  0  0  0  0  0  0  0  0  0  0
    6.5446    0.0064    0.0000 H   0  0  0  0  0  0  0  0  0  0  0  0
    9.1772    0.5612    0.0000 H   0  0  0  0  0  0  0  0  0  0  0  0
    6.2712    1.4744    0.0000 H   0  0  0  0  0  0  0  0  0  0  0  0
    9.2383   -0.8502    0.0000 H   0  0  0  0  0  0  0  0  0  0  0  0
    9.3279   -0.0256    0.0000 H   0  0  0  0  0  0  0  0  0  0  0  0
    8.2857   -1.7318    0.0000 H   0  0  0  0  0  0  0  0  0  0  0  0
    4.8463    0.9617    0.0000 H   0  0  0  0  0  0  0  0  0  0  0  0
    6.1720   -0.6374    0.0000 H   0  0  0  0  0  0  0  0  0  0  0  0
    5.7735   -1.3277    0.0000 H   0  0  0  0  0  0  0  0  0  0  0  0
    9.2490    1.5533    0.0000 H   0  0  0  0  0  0  0  0  0  0  0  0
    3.4537    1.2170    0.0000 H   0  0  0  0  0  0  0  0  0  0  0  0
    3.8066    1.6277    0.0000 H   0  0  0  0  0  0  0  0  0  0  0  0
    3.0966    2.9118    0.0000 H   0  0  0  0  0  0  0  0  0  0  0  0
    5.2884    3.3738    0.0000 H   0  0  0  0  0  0  0  0  0  0  0  0
    5.5180   -2.1000    0.0000 H   0  0  0  0  0  0  0  0  0  0  0  0
    5.5180   -4.3400    0.0000 H   0  0  0  0  0  0  0  0  0  0  0  0
    4.1150   -4.5300    0.0000 H   0  0  0  0  0  0  0  0  0  0  0  0
    3.7860   -4.3400    0.0000 H   0  0  0  0  0  0  0  0  0  0  0  0
    3.7860   -2.1000    0.0000 H   0  0  0  0  0  0  0  0  0  0  0  0
    8.1670    2.7590    0.0000 H   0  0  0  0  0  0  0  0  0  0  0  0
    5.5393    3.9044    0.0000 H   0  0  0  0  0  0  0  0  0  0  0  0
    5.3750    4.6843    0.0000 H   0  0  0  0  0  0  0  0  0  0  0  0
    2.3093   -2.1124    0.0000 H   0  0  0  0  0  0  0  0  0  0  0  0
    2.7079   -2.8026    0.0000 H   0  0  0  0  0  0  0  0  0  0  0  0
    3.1431    0.2665    0.0000 H   0  0  0  0  0  0  0  0  0  0  0  0
    2.0000    2.3444    0.0000 H   0  0  0  0  0  0  0  0  0  0  0  0
    2.4287    3.6561    0.0000 H   0  0  0  0  0  0  0  0  0  0  0  0
    6.9210   -3.9100    0.0000 H   0  0  0  0  0  0  0  0  0  0  0  0
    4.1150   -5.5300    0.0000 H   0  0  0  0  0  0  0  0  0  0  0  0
    2.3830   -3.9100    0.0000 H   0  0  0  0  0  0  0  0  0  0  0  0
    4.5172    5.5300    0.0000 H   0  0  0  0  0  0  0  0  0  0  0  0
    2.3830   -0.9100    0.0000 H   0  0  0  0  0  0  0  0  0  0  0  0
 16  1  1  6  0  0  0
 20  1  1  1  0  0  0
  2 16  1  0  0  0  0
  2 32  1  0  0  0  0
  3 20  1  0  0  0  0
  3 26  1  0  0  0  0
  4 21  1  0  0  0  0
 27  4  1  1  0  0  0
  5 27  1  0  0  0  0
  5 31  1  0  0  0  0
 23  6  1  6  0  0  0
  6 59  1  0  0  0  0
 24  7  1  1  0  0  0
  7 60  1  0  0  0  0
 25  8  1  6  0  0  0
  8 61  1  0  0  0  0
 28  9  1  6  0  0  0
  9 62  1  0  0  0  0
 29 10  1  1  0  0  0
 10 63  1  0  0  0  0
 30 11  1  6  0  0  0
 11 64  1  0  0  0  0
 12 33  1  0  0  0  0
 12 65  1  0  0  0  0
 13 34  1  0  0  0  0
 13 66  1  0  0  0  0
 14 15  1  0  0  0  0
 14 16  1  0  0  0  0
 14 17  1  0  0  0  0
 14 35  1  1  0  0  0
 15 18  1  0  0  0  0
 15 22  1  0  0  0  0
 15 36  1  1  0  0  0
 16 37  1  0  0  0  0
 17 19  2  0  0  0  0
 17 21  1  0  0  0  0
 18 19  1  0  0  0  0
 18 38  1  0  0  0  0
 18 39  1  0  0  0  0
 19 40  1  0  0  0  0
 20 23  1  0  0  0  0
 20 41  1  0  0  0  0
 21 42  1  0  0  0  0
 21 43  1  0  0  0  0
 22 32  2  0  0  0  0
 22 44  1  0  0  0  0
 23 24  1  0  0  0  0
 23 45  1  0  0  0  0
 24 25  1  0  0  0  0
 24 46  1  0  0  0  0
 25 26  1  0  0  0  0
 25 47  1  0  0  0  0
 26 33  1  1  0  0  0
 26 48  1  0  0  0  0
 27 28  1  0  0  0  0
 27 49  1  0  0  0  0
 28 29  1  0  0  0  0
 28 50  1  0  0  0  0
 29 30  1  0  0  0  0
 29 51  1  0  0  0  0
 30 31  1  0  0  0  0
 30 52  1  0  0  0  0
 31 34  1  1  0  0  0
 31 53  1  0  0  0  0
 32 54  1  0  0  0  0
 33 55  1  0  0  0  0
 33 56  1  0  0  0  0
 34 57  1  0  0  0  0
 34 58  1  0  0  0  0
M  END
> <PUBCHEM_COMPOUND_CID>
15736681

> <PUBCHEM_COMPOUND_CANONICALIZED>
1

> <PUBCHEM_CACTVS_COMPLEXITY>
746

> <PUBCHEM_CACTVS_HBOND_ACCEPTOR>
13

> <PUBCHEM_CACTVS_HBOND_DONOR>
8

> <PUBCHEM_CACTVS_ROTATABLE_BOND>
7

> <PUBCHEM_CACTVS_SUBSKEYS>
AAADcfB4PAAAAAAAAAAAAAAAAAAAAQAAAAAkSIAAAAAAAEAAAAAAGgAACAAADRSwgAMACAAABgCAAiBCAAAACAAgIAAICAAAAAgRFAIAIQAiUAAFwAAPIAPAYAwOgAAAAAAAAAAAAAAAAAAAAAAAAAAAAA==

> <PUBCHEM_IUPAC_OPENEYE_NAME>
(2R,3R,4S,5S,6R)-2-[[(1S,4aS,7aR)-1-[(2S,3R,4S,5S,6R)-3,4,5-trihydroxy-6-(hydroxymethyl)tetrahydropyran-2-yl]oxy-1,4a,5,7a-tetrahydrocyclopenta[c]pyran-7-yl]methoxy]-6-(hydroxymethyl)tetrahydropyran-3,4,5-triol

> <PUBCHEM_IUPAC_CAS_NAME>
(2R,3R,4S,5S,6R)-2-[[(1S,4aS,7aR)-1-[[(2S,3R,4S,5S,6R)-3,4,5-trihydroxy-6-(hydroxymethyl)-2-oxanyl]oxy]-1,4a,5,7a-tetrahydrocyclopenta[c]pyran-7-yl]methoxy]-6-(hydroxymethyl)oxane-3,4,5-triol

> <PUBCHEM_IUPAC_NAME_MARKUP>
(2<I>R</I>,3<I>R</I>,4<I>S</I>,5<I>S</I>,6<I>R</I>)-2-[[(1<I>S</I>,4<I>a</I><I>S</I>,7<I>a</I><I>R</I>)-1-[(2<I>S</I>,3<I>R</I>,4<I>S</I>,5<I>S</I>,6<I>R</I>)-3,4,5-trihydroxy-6-(hydroxymethyl)oxan-2-yl]oxy-1,4<I>a</I>,5,7<I>a</I>-tetrahydrocyclopenta[c]pyran-7-yl]methoxy]-6-(hydroxymethyl)oxane-3,4,5-triol

> <PUBCHEM_IUPAC_NAME>
(2R,3R,4S,5S,6R)-2-[[(1S,4aS,7aR)-1-[(2S,3R,4S,5S,6R)-3,4,5-trihydroxy-6-(hydroxymethyl)oxan-2-yl]oxy-1,4a,5,7a-tetrahydrocyclopenta[c]pyran-7-yl]methoxy]-6-(hydroxymethyl)oxane-3,4,5-triol

> <PUBCHEM_IUPAC_SYSTEMATIC_NAME>
(2R,3R,4S,5S,6R)-2-[[(1S,4aS,7aR)-1-[(2S,3R,4S,5S,6R)-6-(hydroxymethyl)-3,4,5-tris(oxidanyl)oxan-2-yl]oxy-1,4a,5,7a-tetrahydrocyclopenta[c]pyran-7-yl]methoxy]-6-(hydroxymethyl)oxane-3,4,5-triol

> <PUBCHEM_IUPAC_TRADITIONAL_NAME>
(2R,3R,4S,5S,6R)-2-[[(1S,4aS,7aR)-1-[(2S,3R,4S,5S,6R)-3,4,5-trihydroxy-6-methylol-tetrahydropyran-2-yl]oxy-1,4a,5,7a-tetrahydrocyclopenta[c]pyran-7-yl]methoxy]-6-methylol-tetrahydropyran-3,4,5-triol

> <PUBCHEM_IUPAC_INCHI>
InChI=1S/C21H32O13/c22-5-10-13(24)15(26)17(28)20(32-10)31-7-9-2-1-8-3-4-30-19(12(8)9)34-21-18(29)16(27)14(25)11(6-23)33-21/h2-4,8,10-29H,1,5-7H2/t8-,10+,11+,12+,13+,14+,15-,16-,17+,18+,19-,20+,21-/m0/s1

> <PUBCHEM_IUPAC_INCHIKEY>
GQSHGURLHWSGRM-DRIUUUNYSA-N

> <PUBCHEM_XLOGP3_AA>
-3.5

> <PUBCHEM_EXACT_MASS>
492.18429107

> <PUBCHEM_MOLECULAR_FORMULA>
C21H32O13

> <PUBCHEM_MOLECULAR_WEIGHT>
492.5

> <PUBCHEM_OPENEYE_CAN_SMILES>
C1C=C(C2C1C=COC2OC3C(C(C(C(O3)CO)O)O)O)COC4C(C(C(C(O4)CO)O)O)O

> <PUBCHEM_OPENEYE_ISO_SMILES>
C1C=C([C@H]2[C@@H]1C=CO[C@H]2O[C@H]3[C@@H]([C@H]([C@@H]([C@H](O3)CO)O)O)O)CO[C@H]4[C@@H]([C@H]([C@@H]([C@H](O4)CO)O)O)O

> <PUBCHEM_CACTVS_TPSA>
208

> <PUBCHEM_MONOISOTOPIC_WEIGHT>
492.18429107

> <PUBCHEM_TOTAL_CHARGE>
0

> <PUBCHEM_HEAVY_ATOM_COUNT>
34

> <PUBCHEM_ATOM_DEF_STEREO_COUNT>
13

> <PUBCHEM_ATOM_UDEF_STEREO_COUNT>
0

> <PUBCHEM_BOND_DEF_STEREO_COUNT>
0

> <PUBCHEM_BOND_UDEF_STEREO_COUNT>
0

> <PUBCHEM_ISOTOPIC_ATOM_COUNT>
0

> <PUBCHEM_COMPONENT_COUNT>
1

> <PUBCHEM_CACTVS_TAUTO_COUNT>
-1

> <PUBCHEM_COORDINATE_TYPE>
1
5
255

> <PUBCHEM_BONDANNOTATIONS>
16  1  6
20  1  5
29  10  5
30  11  6
14  35  5
15  36  5
26  33  5
31  34  5
27  4  5
23  6  6
24  7  5
25  8  6
28  9  6

$$$$
