 
  -OEChem-10192104192D

 60 60  0     0  0  0  0  0  0999 V2000
   10.3312   -1.7500    0.0000 O   0  0  0  0  0  0  0  0  0  0  0  0
    8.5991    0.2500    0.0000 O   0  0  0  0  0  0  0  0  0  0  0  0
   11.1972   -4.2500    0.0000 O   0  0  0  0  0  0  0  0  0  0  0  0
    7.7331    2.7500    0.0000 O   0  0  0  0  0  0  0  0  0  0  0  0
    4.2690    8.7500    0.0000 O   0  0  0  0  0  0  0  0  0  0  0  0
    2.5369    7.7500    0.0000 O   0  0  0  0  0  0  0  0  0  0  0  0
   12.9292   -6.2500    0.0000 O   0  0  0  0  0  0  0  0  0  0  0  0
    6.0010    2.7500    0.0000 O   0  0  0  0  0  0  0  0  0  0  0  0
   12.0632   -7.7500    0.0000 O   0  0  0  0  0  0  0  0  0  0  0  0
    6.8671    4.2500    0.0000 N   0  0  0  0  0  0  0  0  0  0  0  0
   13.7953   -8.7500    0.0000 N   0  0  0  0  0  0  0  0  0  0  0  0
    6.0010    5.7500    0.0000 C   0  0  0  0  0  0  0  0  0  0  0  0
    6.0010    4.7500    0.0000 C   0  0  0  0  0  0  0  0  0  0  0  0
    5.1350    6.2500    0.0000 C   0  0  0  0  0  0  0  0  0  0  0  0
    5.1350    7.2500    0.0000 C   0  0  0  0  0  0  0  0  0  0  0  0
    4.2690    5.7500    0.0000 C   0  0  0  0  0  0  0  0  0  0  0  0
    9.4651   -1.2500    0.0000 C   0  0  0  0  0  0  0  0  0  0  0  0
    9.4651   -0.2500    0.0000 C   0  0  0  0  0  0  0  0  0  0  0  0
   10.3312   -2.7500    0.0000 C   0  0  0  0  0  0  0  0  0  0  0  0
   11.1972   -3.2500    0.0000 C   0  0  0  0  0  0  0  0  0  0  0  0
    8.5991    1.2500    0.0000 C   0  0  0  0  0  0  0  0  0  0  0  0
    4.2690    7.7500    0.0000 C   0  0  0  0  0  0  0  0  0  0  0  0
    7.7331    1.7500    0.0000 C   0  0  0  0  0  0  0  0  0  0  0  0
    3.4030    6.2500    0.0000 C   0  0  0  0  0  0  0  0  0  0  0  0
    3.4030    7.2500    0.0000 C   0  0  0  0  0  0  0  0  0  0  0  0
    6.8671    3.2500    0.0000 C   0  0  0  0  0  0  0  0  0  0  0  0
   12.0632   -4.7500    0.0000 C   0  0  0  0  0  0  0  0  0  0  0  0
   12.0632   -5.7500    0.0000 C   0  0  0  0  0  0  0  0  0  0  0  0
   12.9292   -7.2500    0.0000 C   0  0  0  0  0  0  0  0  0  0  0  0
   13.7953   -7.7500    0.0000 C   0  0  0  0  0  0  0  0  0  0  0  0
    6.6116    5.6423    0.0000 H   0  0  0  0  0  0  0  0  0  0  0  0
    6.2131    6.3326    0.0000 H   0  0  0  0  0  0  0  0  0  0  0  0
    5.3905    4.8577    0.0000 H   0  0  0  0  0  0  0  0  0  0  0  0
    5.7890    4.1674    0.0000 H   0  0  0  0  0  0  0  0  0  0  0  0
    5.6720    7.5600    0.0000 H   0  0  0  0  0  0  0  0  0  0  0  0
    4.2690    5.1300    0.0000 H   0  0  0  0  0  0  0  0  0  0  0  0
    7.4040    4.5600    0.0000 H   0  0  0  0  0  0  0  0  0  0  0  0
    8.8546   -1.1423    0.0000 H   0  0  0  0  0  0  0  0  0  0  0  0
    9.2531   -1.8326    0.0000 H   0  0  0  0  0  0  0  0  0  0  0  0
   10.0757   -0.3577    0.0000 H   0  0  0  0  0  0  0  0  0  0  0  0
    9.6772    0.3326    0.0000 H   0  0  0  0  0  0  0  0  0  0  0  0
    9.7206   -2.6423    0.0000 H   0  0  0  0  0  0  0  0  0  0  0  0
   10.1191   -3.3326    0.0000 H   0  0  0  0  0  0  0  0  0  0  0  0
   11.8078   -3.3577    0.0000 H   0  0  0  0  0  0  0  0  0  0  0  0
   11.4092   -2.6674    0.0000 H   0  0  0  0  0  0  0  0  0  0  0  0
    9.2097    1.1423    0.0000 H   0  0  0  0  0  0  0  0  0  0  0  0
    8.8112    1.8326    0.0000 H   0  0  0  0  0  0  0  0  0  0  0  0
    7.1225    1.8577    0.0000 H   0  0  0  0  0  0  0  0  0  0  0  0
    7.5210    1.1674    0.0000 H   0  0  0  0  0  0  0  0  0  0  0  0
    2.8660    5.9400    0.0000 H   0  0  0  0  0  0  0  0  0  0  0  0
   12.6738   -4.8577    0.0000 H   0  0  0  0  0  0  0  0  0  0  0  0
   12.2753   -4.1674    0.0000 H   0  0  0  0  0  0  0  0  0  0  0  0
   11.4526   -5.6423    0.0000 H   0  0  0  0  0  0  0  0  0  0  0  0
   11.8512   -6.3326    0.0000 H   0  0  0  0  0  0  0  0  0  0  0  0
    4.8059    9.0600    0.0000 H   0  0  0  0  0  0  0  0  0  0  0  0
    2.0000    7.4400    0.0000 H   0  0  0  0  0  0  0  0  0  0  0  0
   14.4058   -7.8577    0.0000 H   0  0  0  0  0  0  0  0  0  0  0  0
   14.0073   -7.1674    0.0000 H   0  0  0  0  0  0  0  0  0  0  0  0
   14.3322   -9.0600    0.0000 H   0  0  0  0  0  0  0  0  0  0  0  0
   13.2583   -9.0600    0.0000 H   0  0  0  0  0  0  0  0  0  0  0  0
  1 17  1  0  0  0  0
  1 19  1  0  0  0  0
  2 18  1  0  0  0  0
  2 21  1  0  0  0  0
  3 20  1  0  0  0  0
  3 27  1  0  0  0  0
  4 23  1  0  0  0  0
  4 26  1  0  0  0  0
  5 22  1  0  0  0  0
  5 55  1  0  0  0  0
  6 25  1  0  0  0  0
  6 56  1  0  0  0  0
  7 28  1  0  0  0  0
  7 29  1  0  0  0  0
  8 26  2  0  0  0  0
  9 29  2  0  0  0  0
 10 13  1  0  0  0  0
 10 26  1  0  0  0  0
 10 37  1  0  0  0  0
 11 30  1  0  0  0  0
 11 59  1  0  0  0  0
 11 60  1  0  0  0  0
 12 13  1  0  0  0  0
 12 14  1  0  0  0  0
 12 31  1  0  0  0  0
 12 32  1  0  0  0  0
 13 33  1  0  0  0  0
 13 34  1  0  0  0  0
 14 15  2  0  0  0  0
 14 16  1  0  0  0  0
 15 22  1  0  0  0  0
 15 35  1  0  0  0  0
 16 24  2  0  0  0  0
 16 36  1  0  0  0  0
 17 18  1  0  0  0  0
 17 38  1  0  0  0  0
 17 39  1  0  0  0  0
 18 40  1  0  0  0  0
 18 41  1  0  0  0  0
 19 20  1  0  0  0  0
 19 42  1  0  0  0  0
 19 43  1  0  0  0  0
 20 44  1  0  0  0  0
 20 45  1  0  0  0  0
 21 23  1  0  0  0  0
 21 46  1  0  0  0  0
 21 47  1  0  0  0  0
 22 25  2  0  0  0  0
 23 48  1  0  0  0  0
 23 49  1  0  0  0  0
 24 25  1  0  0  0  0
 24 50  1  0  0  0  0
 27 28  1  0  0  0  0
 27 51  1  0  0  0  0
 27 52  1  0  0  0  0
 28 53  1  0  0  0  0
 28 54  1  0  0  0  0
 29 30  1  0  0  0  0
 30 57  1  0  0  0  0
 30 58  1  0  0  0  0
M  END
> <PUBCHEM_COMPOUND_CID>
68025080

> <PUBCHEM_COMPOUND_CANONICALIZED>
1

> <PUBCHEM_CACTVS_COMPLEXITY>
467

> <PUBCHEM_CACTVS_HBOND_ACCEPTOR>
10

> <PUBCHEM_CACTVS_HBOND_DONOR>
4

> <PUBCHEM_CACTVS_ROTATABLE_BOND>
18

> <PUBCHEM_CACTVS_SUBSKEYS>
AAADceB7PAAAAAAAAAAAAAAAAAAAAAAAAAAwAAAAAAAAAAABAAAAHgAQCAAADAThmAYwDoLABgCIAiDSGAACAAAgIAAIiICOiIkLJiKCkROPcAEk1hELmAeQ0LIOIAABAAAAQABAAAIAAACAAAAAAAAAAA==

> <PUBCHEM_IUPAC_OPENEYE_NAME>
2-[2-[2-[2-[2-(3,4-dihydroxyphenyl)ethylcarbamoyloxy]ethoxy]ethoxy]ethoxy]ethyl 2-aminoacetate

> <PUBCHEM_IUPAC_CAS_NAME>
2-aminoacetic acid 2-[2-[2-[2-[[2-(3,4-dihydroxyphenyl)ethylamino]-oxomethoxy]ethoxy]ethoxy]ethoxy]ethyl ester

> <PUBCHEM_IUPAC_NAME_MARKUP>
2-[2-[2-[2-[2-(3,4-dihydroxyphenyl)ethylcarbamoyloxy]ethoxy]ethoxy]ethoxy]ethyl 2-aminoacetate

> <PUBCHEM_IUPAC_NAME>
2-[2-[2-[2-[2-(3,4-dihydroxyphenyl)ethylcarbamoyloxy]ethoxy]ethoxy]ethoxy]ethyl 2-aminoacetate

> <PUBCHEM_IUPAC_SYSTEMATIC_NAME>
2-[2-[2-[2-[2-[3,4-bis(oxidanyl)phenyl]ethylcarbamoyloxy]ethoxy]ethoxy]ethoxy]ethyl 2-azanylethanoate

> <PUBCHEM_IUPAC_TRADITIONAL_NAME>
2-aminoacetic acid 2-[2-[2-[2-[2-(3,4-dihydroxyphenyl)ethylcarbamoyloxy]ethoxy]ethoxy]ethoxy]ethyl ester

> <PUBCHEM_IUPAC_INCHI>
InChI=1S/C19H30N2O9/c20-14-18(24)29-11-9-27-7-5-26-6-8-28-10-12-30-19(25)21-4-3-15-1-2-16(22)17(23)13-15/h1-2,13,22-23H,3-12,14,20H2,(H,21,25)

> <PUBCHEM_IUPAC_INCHIKEY>
XWEKGMQGEOMKHX-UHFFFAOYSA-N

> <PUBCHEM_XLOGP3_AA>
-0.3

> <PUBCHEM_EXACT_MASS>
430.19513054

> <PUBCHEM_MOLECULAR_FORMULA>
C19H30N2O9

> <PUBCHEM_MOLECULAR_WEIGHT>
430.4

> <PUBCHEM_OPENEYE_CAN_SMILES>
C1=CC(=C(C=C1CCNC(=O)OCCOCCOCCOCCOC(=O)CN)O)O

> <PUBCHEM_OPENEYE_ISO_SMILES>
C1=CC(=C(C=C1CCNC(=O)OCCOCCOCCOCCOC(=O)CN)O)O

> <PUBCHEM_CACTVS_TPSA>
159

> <PUBCHEM_MONOISOTOPIC_WEIGHT>
430.19513054

> <PUBCHEM_TOTAL_CHARGE>
0

> <PUBCHEM_HEAVY_ATOM_COUNT>
30

> <PUBCHEM_ATOM_DEF_STEREO_COUNT>
0

> <PUBCHEM_ATOM_UDEF_STEREO_COUNT>
0

> <PUBCHEM_BOND_DEF_STEREO_COUNT>
0

> <PUBCHEM_BOND_UDEF_STEREO_COUNT>
0

> <PUBCHEM_ISOTOPIC_ATOM_COUNT>
0

> <PUBCHEM_COMPONENT_COUNT>
1

> <PUBCHEM_CACTVS_TAUTO_COUNT>
-1

> <PUBCHEM_COORDINATE_TYPE>
1
5
255

> <PUBCHEM_BONDANNOTATIONS>
14  15  8
14  16  8
15  22  8
16  24  8
22  25  8
24  25  8

$$$$
