 
  -OEChem-10192104062D

 68 68  0     1  0  0  0  0  0999 V2000
    6.3301   -0.5000    0.0000 P   0  0  3  0  0  0  0  0  0  0  0  0
    8.9282    1.0000    0.0000 O   0  0  0  0  0  0  0  0  0  0  0  0
    7.1962    0.0000    0.0000 O   0  0  0  0  0  0  0  0  0  0  0  0
    4.5981   -3.5000    0.0000 O   0  0  0  0  0  0  0  0  0  0  0  0
    2.8660   -3.5000    0.0000 O   0  0  0  0  0  0  0  0  0  0  0  0
    6.8301   -1.3660    0.0000 O   0  0  0  0  0  0  0  0  0  0  0  0
   10.6603    4.0000    0.0000 O   0  0  0  0  0  0  0  0  0  0  0  0
    5.8301    0.3660    0.0000 O   0  0  0  0  0  0  0  0  0  0  0  0
    8.9282    7.0000    0.0000 O   0  0  0  0  0  0  0  0  0  0  0  0
    8.9282    4.0000    0.0000 N   0  0  0  0  0  0  0  0  0  0  0  0
    5.4641   -1.0000    0.0000 N   0  0  0  0  0  0  0  0  0  0  0  0
    9.7942    5.5000    0.0000 N   0  0  0  0  0  0  0  0  0  0  0  0
    8.9282    3.0000    0.0000 C   0  0  3  0  0  0  0  0  0  0  0  0
    8.0622    2.5000    0.0000 C   0  0  0  0  0  0  0  0  0  0  0  0
    8.0622    1.5000    0.0000 C   0  0  3  0  0  0  0  0  0  0  0  0
    3.7320   -5.0000    0.0000 C   0  0  0  0  0  0  0  0  0  0  0  0
    2.8660   -5.5000    0.0000 C   0  0  0  0  0  0  0  0  0  0  0  0
    4.5981   -5.5000    0.0000 C   0  0  0  0  0  0  0  0  0  0  0  0
    7.1962    1.0000    0.0000 C   0  0  0  0  0  0  0  0  0  0  0  0
    9.7942    2.5000    0.0000 C   0  0  0  0  0  0  0  0  0  0  0  0
    2.8660   -6.5000    0.0000 C   0  0  0  0  0  0  0  0  0  0  0  0
    4.5981   -6.5000    0.0000 C   0  0  0  0  0  0  0  0  0  0  0  0
    3.7320   -4.0000    0.0000 C   0  0  0  0  0  0  0  0  0  0  0  0
    9.7942    4.5000    0.0000 C   0  0  0  0  0  0  0  0  0  0  0  0
    8.0622    4.5000    0.0000 C   0  0  0  0  0  0  0  0  0  0  0  0
    2.0000   -7.0000    0.0000 C   0  0  0  0  0  0  0  0  0  0  0  0
    5.4641   -7.0000    0.0000 C   0  0  0  0  0  0  0  0  0  0  0  0
    4.5981   -2.5000    0.0000 C   0  0  0  0  0  0  0  0  0  0  0  0
    5.4641   -2.0000    0.0000 C   0  0  0  0  0  0  0  0  0  0  0  0
    8.0622    5.5000    0.0000 C   0  0  0  0  0  0  0  0  0  0  0  0
    8.9282    0.0000    0.0000 C   0  0  0  0  0  0  0  0  0  0  0  0
    8.9282    6.0000    0.0000 C   0  0  0  0  0  0  0  0  0  0  0  0
    9.4651    3.3100    0.0000 H   0  0  0  0  0  0  0  0  0  0  0  0
    7.8501    3.0826    0.0000 H   0  0  0  0  0  0  0  0  0  0  0  0
    7.4516    2.3923    0.0000 H   0  0  0  0  0  0  0  0  0  0  0  0
    8.0622    0.8800    0.0000 H   0  0  0  0  0  0  0  0  0  0  0  0
    3.7320   -5.6200    0.0000 H   0  0  0  0  0  0  0  0  0  0  0  0
    2.6540   -4.9174    0.0000 H   0  0  0  0  0  0  0  0  0  0  0  0
    2.2554   -5.6077    0.0000 H   0  0  0  0  0  0  0  0  0  0  0  0
    5.2087   -5.6077    0.0000 H   0  0  0  0  0  0  0  0  0  0  0  0
    4.8101   -4.9174    0.0000 H   0  0  0  0  0  0  0  0  0  0  0  0
    6.9841    1.5826    0.0000 H   0  0  0  0  0  0  0  0  0  0  0  0
    6.5856    0.8923    0.0000 H   0  0  0  0  0  0  0  0  0  0  0  0
    9.4842    1.9631    0.0000 H   0  0  0  0  0  0  0  0  0  0  0  0
   10.3312    2.1900    0.0000 H   0  0  0  0  0  0  0  0  0  0  0  0
   10.1042    3.0369    0.0000 H   0  0  0  0  0  0  0  0  0  0  0  0
    3.0781   -7.0826    0.0000 H   0  0  0  0  0  0  0  0  0  0  0  0
    3.4766   -6.3923    0.0000 H   0  0  0  0  0  0  0  0  0  0  0  0
    3.9875   -6.3923    0.0000 H   0  0  0  0  0  0  0  0  0  0  0  0
    4.3860   -7.0826    0.0000 H   0  0  0  0  0  0  0  0  0  0  0  0
    7.5252    4.1900    0.0000 H   0  0  0  0  0  0  0  0  0  0  0  0
    1.6900   -6.4631    0.0000 H   0  0  0  0  0  0  0  0  0  0  0  0
    1.4631   -7.3100    0.0000 H   0  0  0  0  0  0  0  0  0  0  0  0
    2.3100   -7.5369    0.0000 H   0  0  0  0  0  0  0  0  0  0  0  0
    5.1541   -7.5369    0.0000 H   0  0  0  0  0  0  0  0  0  0  0  0
    6.0010   -7.3100    0.0000 H   0  0  0  0  0  0  0  0  0  0  0  0
    5.7741   -6.4631    0.0000 H   0  0  0  0  0  0  0  0  0  0  0  0
    4.3860   -1.9174    0.0000 H   0  0  0  0  0  0  0  0  0  0  0  0
    3.9875   -2.6077    0.0000 H   0  0  0  0  0  0  0  0  0  0  0  0
    5.6762   -2.5826    0.0000 H   0  0  0  0  0  0  0  0  0  0  0  0
    6.0747   -1.8923    0.0000 H   0  0  0  0  0  0  0  0  0  0  0  0
    4.9272   -0.6900    0.0000 H   0  0  0  0  0  0  0  0  0  0  0  0
   10.3312    5.8100    0.0000 H   0  0  0  0  0  0  0  0  0  0  0  0
    7.5252    5.8100    0.0000 H   0  0  0  0  0  0  0  0  0  0  0  0
    8.3082    0.0000    0.0000 H   0  0  0  0  0  0  0  0  0  0  0  0
    8.9282   -0.6200    0.0000 H   0  0  0  0  0  0  0  0  0  0  0  0
    9.5482   -0.0000    0.0000 H   0  0  0  0  0  0  0  0  0  0  0  0
    7.4501   -1.3660    0.0000 H   0  0  0  0  0  0  0  0  0  0  0  0
  1  3  1  0  0  0  0
  1  6  1  0  0  0  0
  1  8  2  0  0  0  0
  1 11  1  0  0  0  0
  2 15  1  0  0  0  0
  2 31  1  0  0  0  0
  3 19  1  0  0  0  0
  4 23  1  0  0  0  0
  4 28  1  0  0  0  0
  5 23  2  0  0  0  0
  6 68  1  0  0  0  0
  7 24  2  0  0  0  0
  9 32  2  0  0  0  0
 10 13  1  0  0  0  0
 10 24  1  0  0  0  0
 10 25  1  0  0  0  0
 11 29  1  0  0  0  0
 11 62  1  0  0  0  0
 12 24  1  0  0  0  0
 12 32  1  0  0  0  0
 12 63  1  0  0  0  0
 13 14  1  0  0  0  0
 13 20  1  0  0  0  0
 13 33  1  0  0  0  0
 14 15  1  0  0  0  0
 14 34  1  0  0  0  0
 14 35  1  0  0  0  0
 15 19  1  0  0  0  0
 15 36  1  0  0  0  0
 16 17  1  0  0  0  0
 16 18  1  0  0  0  0
 16 23  1  0  0  0  0
 16 37  1  0  0  0  0
 17 21  1  0  0  0  0
 17 38  1  0  0  0  0
 17 39  1  0  0  0  0
 18 22  1  0  0  0  0
 18 40  1  0  0  0  0
 18 41  1  0  0  0  0
 19 42  1  0  0  0  0
 19 43  1  0  0  0  0
 20 44  1  0  0  0  0
 20 45  1  0  0  0  0
 20 46  1  0  0  0  0
 21 26  1  0  0  0  0
 21 47  1  0  0  0  0
 21 48  1  0  0  0  0
 22 27  1  0  0  0  0
 22 49  1  0  0  0  0
 22 50  1  0  0  0  0
 25 30  2  0  0  0  0
 25 51  1  0  0  0  0
 26 52  1  0  0  0  0
 26 53  1  0  0  0  0
 26 54  1  0  0  0  0
 27 55  1  0  0  0  0
 27 56  1  0  0  0  0
 27 57  1  0  0  0  0
 28 29  1  0  0  0  0
 28 58  1  0  0  0  0
 28 59  1  0  0  0  0
 29 60  1  0  0  0  0
 29 61  1  0  0  0  0
 30 32  1  0  0  0  0
 30 64  1  0  0  0  0
 31 65  1  0  0  0  0
 31 66  1  0  0  0  0
 31 67  1  0  0  0  0
M  END
> <PUBCHEM_COMPOUND_CID>
130280530

> <PUBCHEM_COMPOUND_CANONICALIZED>
1

> <PUBCHEM_CACTVS_COMPLEXITY>
696

> <PUBCHEM_CACTVS_HBOND_ACCEPTOR>
9

> <PUBCHEM_CACTVS_HBOND_DONOR>
3

> <PUBCHEM_CACTVS_ROTATABLE_BOND>
17

> <PUBCHEM_CACTVS_SUBSKEYS>
AAADcfB7PAIAAAAAAAAAAAAAAAAAAAAAAAAgAAAAAAAAAAAAAAAAHgAQiCAADTzhgAYDCAPABRCIQCHWWICAAAAAAgAIAIEIAECDABIAgAAHAAAOFyICAMGogAAOAAAAAAAAAAAAAAAAAAAAAAAAAAAAAA==

> <PUBCHEM_IUPAC_OPENEYE_NAME>
[4-(2,4-dioxopyrimidin-1-yl)-2-methoxy-pentoxy]-N-[2-(2-propylpentanoyloxy)ethyl]phosphonamidic acid

> <PUBCHEM_IUPAC_CAS_NAME>
[4-(2,4-dioxo-1-pyrimidinyl)-2-methoxypentoxy]-N-[2-(1-oxo-2-propylpentoxy)ethyl]phosphonamidic acid

> <PUBCHEM_IUPAC_NAME_MARKUP>
[4-(2,4-dioxopyrimidin-1-yl)-2-methoxypentoxy]-<I>N</I>-[2-(2-propylpentanoyloxy)ethyl]phosphonamidic acid

> <PUBCHEM_IUPAC_NAME>
[4-(2,4-dioxopyrimidin-1-yl)-2-methoxypentoxy]-N-[2-(2-propylpentanoyloxy)ethyl]phosphonamidic acid

> <PUBCHEM_IUPAC_SYSTEMATIC_NAME>
[4-[2,4-bis(oxidanylidene)pyrimidin-1-yl]-2-methoxy-pentoxy]-N-[2-(2-propylpentanoyloxy)ethyl]phosphonamidic acid

> <PUBCHEM_IUPAC_TRADITIONAL_NAME>
[4-(2,4-diketopyrimidin-1-yl)-2-methoxy-pentoxy]-N-[2-(2-propylpentanoyloxy)ethyl]phosphonamidic acid

> <PUBCHEM_IUPAC_INCHI>
InChI=1S/C20H36N3O8P/c1-5-7-16(8-6-2)19(25)30-12-10-21-32(27,28)31-14-17(29-4)13-15(3)23-11-9-18(24)22-20(23)26/h9,11,15-17H,5-8,10,12-14H2,1-4H3,(H2,21,27,28)(H,22,24,26)

> <PUBCHEM_IUPAC_INCHIKEY>
HIWWRBJDVCFIGR-UHFFFAOYSA-N

> <PUBCHEM_XLOGP3_AA>
1.1

> <PUBCHEM_EXACT_MASS>
477.22400211

> <PUBCHEM_MOLECULAR_FORMULA>
C20H36N3O8P

> <PUBCHEM_MOLECULAR_WEIGHT>
477.5

> <PUBCHEM_OPENEYE_CAN_SMILES>
CCCC(CCC)C(=O)OCCNP(=O)(O)OCC(CC(C)N1C=CC(=O)NC1=O)OC

> <PUBCHEM_OPENEYE_ISO_SMILES>
CCCC(CCC)C(=O)OCCNP(=O)(O)OCC(CC(C)N1C=CC(=O)NC1=O)OC

> <PUBCHEM_CACTVS_TPSA>
144

> <PUBCHEM_MONOISOTOPIC_WEIGHT>
477.22400211

> <PUBCHEM_TOTAL_CHARGE>
0

> <PUBCHEM_HEAVY_ATOM_COUNT>
32

> <PUBCHEM_ATOM_DEF_STEREO_COUNT>
0

> <PUBCHEM_ATOM_UDEF_STEREO_COUNT>
2

> <PUBCHEM_BOND_DEF_STEREO_COUNT>
0

> <PUBCHEM_BOND_UDEF_STEREO_COUNT>
0

> <PUBCHEM_ISOTOPIC_ATOM_COUNT>
0

> <PUBCHEM_COMPONENT_COUNT>
1

> <PUBCHEM_CACTVS_TAUTO_COUNT>
-1

> <PUBCHEM_COORDINATE_TYPE>
1
5
255

> <PUBCHEM_BONDANNOTATIONS>
10  24  8
10  25  8
12  24  8
12  32  8
13  20  3
15  14  3
25  30  8
30  32  8

$$$$
