 
  -OEChem-10192104062D

 43 45  0     1  0  0  0  0  0999 V2000
    7.7080    3.4844    0.0000 O   0  0  0  0  0  0  0  0  0  0  0  0
    6.8671   -0.3021    0.0000 O   0  0  0  0  0  0  0  0  0  0  0  0
    9.7902    1.9194    0.0000 O   0  0  0  0  0  0  0  0  0  0  0  0
    5.1350   -0.3021    0.0000 O   0  0  0  0  0  0  0  0  0  0  0  0
    5.1070    0.9766    0.0000 O   0  0  0  0  0  0  0  0  0  0  0  0
    5.7793    3.0457    0.0000 O   0  0  0  0  0  0  0  0  0  0  0  0
    5.1350   -3.3021    0.0000 O   0  0  0  0  0  0  0  0  0  0  0  0
    3.4030   -2.3021    0.0000 O   0  0  0  0  0  0  0  0  0  0  0  0
    2.5369   -0.8021    0.0000 O   0  0  0  0  0  0  0  0  0  0  0  0
    6.8671   -2.3021    0.0000 N   0  0  0  0  0  0  0  0  0  0  0  0
    6.8671    0.6979    0.0000 C   0  0  3  0  0  0  0  0  0  0  0  0
    8.1176    1.5204    0.0000 C   0  0  3  0  0  0  0  0  0  0  0  0
    6.0580    1.2857    0.0000 C   0  0  1  0  0  0  0  0  0  0  0  0
    6.3671    2.2367    0.0000 C   0  0  3  0  0  0  0  0  0  0  0  0
    8.4099    2.4767    0.0000 C   0  0  3  0  0  0  0  0  0  0  0  0
    6.0010   -0.8021    0.0000 C   0  0  3  0  0  0  0  0  0  0  0  0
    6.0010   -1.8021    0.0000 C   0  0  3  0  0  0  0  0  0  0  0  0
    9.4979    0.9631    0.0000 C   0  0  0  0  0  0  0  0  0  0  0  0
    5.1350   -2.3021    0.0000 C   0  0  2  0  0  0  0  0  0  0  0  0
    4.2690   -1.8021    0.0000 C   0  0  3  0  0  0  0  0  0  0  0  0
    4.2690   -0.8021    0.0000 C   0  0  3  0  0  0  0  0  0  0  0  0
    3.4030   -0.3021    0.0000 C   0  0  0  0  0  0  0  0  0  0  0  0
    6.3146    0.4164    0.0000 H   0  0  0  0  0  0  0  0  0  0  0  0
    8.1788    0.9034    0.0000 H   0  0  0  0  0  0  0  0  0  0  0  0
    5.6196    1.7241    0.0000 H   0  0  0  0  0  0  0  0  0  0  0  0
    5.7547    2.1397    0.0000 H   0  0  0  0  0  0  0  0  0  0  0  0
    8.7964    2.9615    0.0000 H   0  0  0  0  0  0  0  0  0  0  0  0
    6.0010   -0.1821    0.0000 H   0  0  0  0  0  0  0  0  0  0  0  0
    6.5380   -1.4921    0.0000 H   0  0  0  0  0  0  0  0  0  0  0  0
    9.2825    0.3817    0.0000 H   0  0  0  0  0  0  0  0  0  0  0  0
   10.0853    0.7647    0.0000 H   0  0  0  0  0  0  0  0  0  0  0  0
    4.5981   -2.6121    0.0000 H   0  0  0  0  0  0  0  0  0  0  0  0
    3.7320   -1.4921    0.0000 H   0  0  0  0  0  0  0  0  0  0  0  0
    4.2690   -0.1821    0.0000 H   0  0  0  0  0  0  0  0  0  0  0  0
    4.6462    1.3915    0.0000 H   0  0  0  0  0  0  0  0  0  0  0  0
    3.8015    0.1728    0.0000 H   0  0  0  0  0  0  0  0  0  0  0  0
    3.0044    0.1728    0.0000 H   0  0  0  0  0  0  0  0  0  0  0  0
    6.8671   -2.9221    0.0000 H   0  0  0  0  0  0  0  0  0  0  0  0
    7.4040   -1.9921    0.0000 H   0  0  0  0  0  0  0  0  0  0  0  0
    6.0315    3.6121    0.0000 H   0  0  0  0  0  0  0  0  0  0  0  0
    4.5981   -3.6121    0.0000 H   0  0  0  0  0  0  0  0  0  0  0  0
    3.4030   -2.9221    0.0000 H   0  0  0  0  0  0  0  0  0  0  0  0
    2.0000   -0.4921    0.0000 H   0  0  0  0  0  0  0  0  0  0  0  0
  1 12  1  0  0  0  0
  1 15  1  0  0  0  0
  2 11  1  0  0  0  0
  2 16  1  0  0  0  0
  3 15  1  0  0  0  0
  3 18  1  0  0  0  0
  4 16  1  0  0  0  0
  4 21  1  0  0  0  0
 13  5  1  6  0  0  0
  5 35  1  0  0  0  0
  6 14  1  0  0  0  0
  6 40  1  0  0  0  0
 19  7  1  1  0  0  0
  7 41  1  0  0  0  0
  8 20  1  0  0  0  0
  8 42  1  0  0  0  0
  9 22  1  0  0  0  0
  9 43  1  0  0  0  0
 10 17  1  0  0  0  0
 10 38  1  0  0  0  0
 10 39  1  0  0  0  0
 11 12  1  0  0  0  0
 11 13  1  0  0  0  0
 11 23  1  0  0  0  0
 12 18  1  0  0  0  0
 12 24  1  0  0  0  0
 13 14  1  0  0  0  0
 13 25  1  0  0  0  0
 14 15  1  0  0  0  0
 14 26  1  0  0  0  0
 15 27  1  0  0  0  0
 16 17  1  0  0  0  0
 16 28  1  0  0  0  0
 17 19  1  0  0  0  0
 17 29  1  0  0  0  0
 18 30  1  0  0  0  0
 18 31  1  0  0  0  0
 19 20  1  0  0  0  0
 19 32  1  0  0  0  0
 20 21  1  0  0  0  0
 20 33  1  0  0  0  0
 21 22  1  0  0  0  0
 21 34  1  0  0  0  0
 22 36  1  0  0  0  0
 22 37  1  0  0  0  0
M  END
> <PUBCHEM_COMPOUND_CID>
70920466

> <PUBCHEM_COMPOUND_CANONICALIZED>
1

> <PUBCHEM_CACTVS_COMPLEXITY>
399

> <PUBCHEM_CACTVS_HBOND_ACCEPTOR>
10

> <PUBCHEM_CACTVS_HBOND_DONOR>
6

> <PUBCHEM_CACTVS_ROTATABLE_BOND>
3

> <PUBCHEM_CACTVS_SUBSKEYS>
AAADceByPAAAAAAAAAAAAAAAAAAAASAAAAAkSAAABIAAAAAAAAAAHgAQCAAACDzxgAcACABABgAAAAAAAAAAAAAAAAAAAIAAAAATEAIAgAAjQAAHEAAHAAHwcA0AAAAAAAAAAAAAAAAAAAAAAAAAAAAAAA==

> <PUBCHEM_IUPAC_OPENEYE_NAME>
(3R)-2-[(4R)-3-amino-4,5-dihydroxy-6-(hydroxymethyl)tetrahydropyran-2-yl]oxy-6,8-dioxabicyclo[3.2.1]octane-3,4-diol

> <PUBCHEM_IUPAC_CAS_NAME>
(3R)-2-[[(4R)-3-amino-4,5-dihydroxy-6-(hydroxymethyl)-2-oxanyl]oxy]-6,8-dioxabicyclo[3.2.1]octane-3,4-diol

> <PUBCHEM_IUPAC_NAME_MARKUP>
(3<I>R</I>)-2-[(4<I>R</I>)-3-amino-4,5-dihydroxy-6-(hydroxymethyl)oxan-2-yl]oxy-6,8-dioxabicyclo[3.2.1]octane-3,4-diol

> <PUBCHEM_IUPAC_NAME>
(3R)-2-[(4R)-3-amino-4,5-dihydroxy-6-(hydroxymethyl)oxan-2-yl]oxy-6,8-dioxabicyclo[3.2.1]octane-3,4-diol

> <PUBCHEM_IUPAC_SYSTEMATIC_NAME>
(3R)-2-[(4R)-3-azanyl-6-(hydroxymethyl)-4,5-bis(oxidanyl)oxan-2-yl]oxy-6,8-dioxabicyclo[3.2.1]octane-3,4-diol

> <PUBCHEM_IUPAC_TRADITIONAL_NAME>
(3R)-2-[(4R)-3-amino-4,5-dihydroxy-6-methylol-tetrahydropyran-2-yl]oxy-6,8-dioxabicyclo[3.2.1]octane-3,4-diol

> <PUBCHEM_IUPAC_INCHI>
InChI=1S/C12H21NO9/c13-5-7(16)6(15)3(1-14)20-11(5)22-10-4-2-19-12(21-4)9(18)8(10)17/h3-12,14-18H,1-2,13H2/t3?,4?,5?,6?,7-,8-,9?,10?,11?,12?/m1/s1

> <PUBCHEM_IUPAC_INCHIKEY>
NTWSNUZDNKMLRX-YBUVMNNRSA-N

> <PUBCHEM_XLOGP3_AA>
-4

> <PUBCHEM_EXACT_MASS>
323.12163125

> <PUBCHEM_MOLECULAR_FORMULA>
C12H21NO9

> <PUBCHEM_MOLECULAR_WEIGHT>
323.30

> <PUBCHEM_OPENEYE_CAN_SMILES>
C1C2C(C(C(C(O1)O2)O)O)OC3C(C(C(C(O3)CO)O)O)N

> <PUBCHEM_OPENEYE_ISO_SMILES>
C1C2C([C@@H](C(C(O1)O2)O)O)OC3C([C@H](C(C(O3)CO)O)O)N

> <PUBCHEM_CACTVS_TPSA>
164

> <PUBCHEM_MONOISOTOPIC_WEIGHT>
323.12163125

> <PUBCHEM_TOTAL_CHARGE>
0

> <PUBCHEM_HEAVY_ATOM_COUNT>
22

> <PUBCHEM_ATOM_DEF_STEREO_COUNT>
2

> <PUBCHEM_ATOM_UDEF_STEREO_COUNT>
8

> <PUBCHEM_BOND_DEF_STEREO_COUNT>
0

> <PUBCHEM_BOND_UDEF_STEREO_COUNT>
0

> <PUBCHEM_ISOTOPIC_ATOM_COUNT>
0

> <PUBCHEM_COMPONENT_COUNT>
1

> <PUBCHEM_CACTVS_TAUTO_COUNT>
-1

> <PUBCHEM_COORDINATE_TYPE>
1
5
255

> <PUBCHEM_BONDANNOTATIONS>
15  1  3
17  10  3
12  18  3
11  2  3
16  2  3
21  22  3
13  5  6
14  6  3
19  7  5
20  8  3

$$$$
