 
  -OEChem-10192104402D

 82 86  0     1  0  0  0  0  0999 V2000
    2.5357   -2.5212    0.0000 O   0  0  0  0  0  0  0  0  0  0  0  0
   11.4608    0.5653    0.0000 O   0  0  0  0  0  0  0  0  0  0  0  0
    4.3500   -4.2991    0.0000 O   0  0  0  0  0  0  0  0  0  0  0  0
   10.6064   -0.9414    0.0000 O   0  0  0  0  0  0  0  0  0  0  0  0
    2.8467   -3.4389    0.0000 O   0  0  0  0  0  0  0  0  0  0  0  0
   10.5775    4.2173    0.0000 O   0  0  0  0  0  0  0  0  0  0  0  0
    7.0628   -0.9689    0.0000 C   0  0  2  0  0  0  0  0  0  0  0  0
    6.1968   -0.4689    0.0000 C   0  0  1  0  0  0  0  0  0  0  0  0
    5.2868   -0.9758    0.0000 C   0  0  2  0  0  0  0  0  0  0  0  0
    7.9288   -0.4689    0.0000 C   0  0  1  0  0  0  0  0  0  0  0  0
    5.2787   -2.0174    0.0000 C   0  0  1  0  0  0  0  0  0  0  0  0
    7.0789   -2.0104    0.0000 C   0  0  0  0  0  0  0  0  0  0  0  0
    7.9288    0.5311    0.0000 C   0  0  0  0  0  0  0  0  0  0  0  0
    8.8228    1.0658    0.0000 C   0  0  1  0  0  0  0  0  0  0  0  0
    6.1808   -2.5382    0.0000 C   0  0  0  0  0  0  0  0  0  0  0  0
    6.1968    0.5311    0.0000 C   0  0  0  0  0  0  0  0  0  0  0  0
    8.8228   -1.0036    0.0000 C   0  0  0  0  0  0  0  0  0  0  0  0
    9.7288    0.5519    0.0000 C   0  0  1  0  0  0  0  0  0  0  0  0
    4.3433   -2.5671    0.0000 C   0  0  1  0  0  0  0  0  0  0  0  0
    4.3599   -0.4117    0.0000 C   0  0  0  0  0  0  0  0  0  0  0  0
    9.7288   -0.4897    0.0000 C   0  0  0  0  0  0  0  0  0  0  0  0
    7.7056   -1.7350    0.0000 C   0  0  0  0  0  0  0  0  0  0  0  0
    7.0628    1.0311    0.0000 C   0  0  0  0  0  0  0  0  0  0  0  0
    8.7977    2.1505    0.0000 C   0  0  2  0  0  0  0  0  0  0  0  0
    5.2945    0.0242    0.0000 C   0  0  0  0  0  0  0  0  0  0  0  0
    8.2709   -1.4086    0.0000 C   0  0  0  0  0  0  0  0  0  0  0  0
    3.4037   -2.0246    0.0000 C   0  0  2  0  0  0  0  0  0  0  0  0
    3.4120   -0.9396    0.0000 C   0  0  0  0  0  0  0  0  0  0  0  0
   10.6726    1.0871    0.0000 C   0  0  0  0  0  0  0  0  0  0  0  0
    9.7288    2.7074    0.0000 C   0  0  1  0  0  0  0  0  0  0  0  0
   10.6726    2.1721    0.0000 C   0  0  0  0  0  0  0  0  0  0  0  0
    4.8466   -3.4312    0.0000 C   0  0  0  0  0  0  0  0  0  0  0  0
   10.5987    0.0586    0.0000 C   0  0  0  0  0  0  0  0  0  0  0  0
    3.8467   -3.4350    0.0000 C   0  0  0  0  0  0  0  0  0  0  0  0
    7.9222    2.6337    0.0000 C   0  0  0  0  0  0  0  0  0  0  0  0
    9.7173    3.7073    0.0000 C   0  0  0  0  0  0  0  0  0  0  0  0
    6.9329   -0.0439    0.0000 H   0  0  0  0  0  0  0  0  0  0  0  0
    5.2820   -2.8674    0.0000 H   0  0  0  0  0  0  0  0  0  0  0  0
    7.2969   -2.5908    0.0000 H   0  0  0  0  0  0  0  0  0  0  0  0
    7.6880   -1.8949    0.0000 H   0  0  0  0  0  0  0  0  0  0  0  0
    8.0786    1.4765    0.0000 H   0  0  0  0  0  0  0  0  0  0  0  0
    5.7835   -3.0141    0.0000 H   0  0  0  0  0  0  0  0  0  0  0  0
    6.5818   -3.0111    0.0000 H   0  0  0  0  0  0  0  0  0  0  0  0
    5.9847    1.1137    0.0000 H   0  0  0  0  0  0  0  0  0  0  0  0
    5.5862    0.4234    0.0000 H   0  0  0  0  0  0  0  0  0  0  0  0
    8.4182   -1.4734    0.0000 H   0  0  0  0  0  0  0  0  0  0  0  0
    9.2164   -1.4826    0.0000 H   0  0  0  0  0  0  0  0  0  0  0  0
    4.7681    0.0550    0.0000 H   0  0  0  0  0  0  0  0  0  0  0  0
    3.9700    0.0704    0.0000 H   0  0  0  0  0  0  0  0  0  0  0  0
    9.9379   -1.0734    0.0000 H   0  0  0  0  0  0  0  0  0  0  0  0
   10.3397   -0.3836    0.0000 H   0  0  0  0  0  0  0  0  0  0  0  0
    7.2306   -2.1335    0.0000 H   0  0  0  0  0  0  0  0  0  0  0  0
    8.1041   -2.2099    0.0000 H   0  0  0  0  0  0  0  0  0  0  0  0
    8.1805   -1.3364    0.0000 H   0  0  0  0  0  0  0  0  0  0  0  0
    7.0628    1.6511    0.0000 H   0  0  0  0  0  0  0  0  0  0  0  0
    8.2674    1.8291    0.0000 H   0  0  0  0  0  0  0  0  0  0  0  0
    5.9145    0.0194    0.0000 H   0  0  0  0  0  0  0  0  0  0  0  0
    5.2993    0.6442    0.0000 H   0  0  0  0  0  0  0  0  0  0  0  0
    4.6745    0.0290    0.0000 H   0  0  0  0  0  0  0  0  0  0  0  0
    7.6884   -1.6207    0.0000 H   0  0  0  0  0  0  0  0  0  0  0  0
    8.4830   -1.9912    0.0000 H   0  0  0  0  0  0  0  0  0  0  0  0
    8.8535   -1.1965    0.0000 H   0  0  0  0  0  0  0  0  0  0  0  0
    3.4025   -2.6446    0.0000 H   0  0  0  0  0  0  0  0  0  0  0  0
    3.2075   -0.3543    0.0000 H   0  0  0  0  0  0  0  0  0  0  0  0
    2.8004   -1.0410    0.0000 H   0  0  0  0  0  0  0  0  0  0  0  0
   10.8817    0.5034    0.0000 H   0  0  0  0  0  0  0  0  0  0  0  0
   11.2835    1.1932    0.0000 H   0  0  0  0  0  0  0  0  0  0  0  0
   10.2628    3.0225    0.0000 H   0  0  0  0  0  0  0  0  0  0  0  0
   11.2835    2.0660    0.0000 H   0  0  0  0  0  0  0  0  0  0  0  0
   10.8817    2.7558    0.0000 H   0  0  0  0  0  0  0  0  0  0  0  0
    4.3109   -3.7432    0.0000 H   0  0  0  0  0  0  0  0  0  0  0  0
    5.1587   -3.9669    0.0000 H   0  0  0  0  0  0  0  0  0  0  0  0
    5.3824   -3.1191    0.0000 H   0  0  0  0  0  0  0  0  0  0  0  0
    8.2218    3.1765    0.0000 H   0  0  0  0  0  0  0  0  0  0  0  0
    7.3794    2.9333    0.0000 H   0  0  0  0  0  0  0  0  0  0  0  0
    7.6226    2.0909    0.0000 H   0  0  0  0  0  0  0  0  0  0  0  0
    9.4985    4.2874    0.0000 H   0  0  0  0  0  0  0  0  0  0  0  0
    9.1080    3.5926    0.0000 H   0  0  0  0  0  0  0  0  0  0  0  0
    2.0000   -2.2092    0.0000 H   0  0  0  0  0  0  0  0  0  0  0  0
   12.0001    0.2594    0.0000 H   0  0  0  0  0  0  0  0  0  0  0  0
    4.0421   -4.8372    0.0000 H   0  0  0  0  0  0  0  0  0  0  0  0
   10.5703    4.8372    0.0000 H   0  0  0  0  0  0  0  0  0  0  0  0
 27  1  1  1  0  0  0
  1 79  1  0  0  0  0
  2 33  1  0  0  0  0
  2 80  1  0  0  0  0
  3 34  1  0  0  0  0
  3 81  1  0  0  0  0
  4 33  2  0  0  0  0
  5 34  2  0  0  0  0
  6 36  1  0  0  0  0
  6 82  1  0  0  0  0
  7  8  1  0  0  0  0
  7 10  1  0  0  0  0
  7 12  1  0  0  0  0
  7 22  1  1  0  0  0
  8  9  1  0  0  0  0
  8 16  1  0  0  0  0
  8 37  1  6  0  0  0
  9 11  1  0  0  0  0
  9 20  1  0  0  0  0
  9 25  1  1  0  0  0
 10 13  1  0  0  0  0
 10 17  1  0  0  0  0
 10 26  1  6  0  0  0
 11 15  1  0  0  0  0
 11 19  1  0  0  0  0
 11 38  1  6  0  0  0
 12 15  1  0  0  0  0
 12 39  1  0  0  0  0
 12 40  1  0  0  0  0
 13 14  1  0  0  0  0
 13 23  2  0  0  0  0
 14 18  1  0  0  0  0
 14 24  1  0  0  0  0
 14 41  1  1  0  0  0
 15 42  1  0  0  0  0
 15 43  1  0  0  0  0
 16 23  1  0  0  0  0
 16 44  1  0  0  0  0
 16 45  1  0  0  0  0
 17 21  1  0  0  0  0
 17 46  1  0  0  0  0
 17 47  1  0  0  0  0
 18 21  1  0  0  0  0
 18 29  1  0  0  0  0
 18 33  1  1  0  0  0
 19 27  1  0  0  0  0
 19 32  1  6  0  0  0
 19 34  1  0  0  0  0
 20 28  1  0  0  0  0
 20 48  1  0  0  0  0
 20 49  1  0  0  0  0
 21 50  1  0  0  0  0
 21 51  1  0  0  0  0
 22 52  1  0  0  0  0
 22 53  1  0  0  0  0
 22 54  1  0  0  0  0
 23 55  1  0  0  0  0
 24 30  1  0  0  0  0
 24 35  1  1  0  0  0
 24 56  1  0  0  0  0
 25 57  1  0  0  0  0
 25 58  1  0  0  0  0
 25 59  1  0  0  0  0
 26 60  1  0  0  0  0
 26 61  1  0  0  0  0
 26 62  1  0  0  0  0
 27 28  1  0  0  0  0
 27 63  1  0  0  0  0
 28 64  1  0  0  0  0
 28 65  1  0  0  0  0
 29 31  1  0  0  0  0
 29 66  1  0  0  0  0
 29 67  1  0  0  0  0
 30 31  1  0  0  0  0
 30 36  1  6  0  0  0
 30 68  1  0  0  0  0
 31 69  1  0  0  0  0
 31 70  1  0  0  0  0
 32 71  1  0  0  0  0
 32 72  1  0  0  0  0
 32 73  1  0  0  0  0
 35 74  1  0  0  0  0
 35 75  1  0  0  0  0
 35 76  1  0  0  0  0
 36 77  1  0  0  0  0
 36 78  1  0  0  0  0
M  END
> <PUBCHEM_COMPOUND_CID>
102588659

> <PUBCHEM_COMPOUND_CANONICALIZED>
1

> <PUBCHEM_CACTVS_COMPLEXITY>
990

> <PUBCHEM_CACTVS_HBOND_ACCEPTOR>
6

> <PUBCHEM_CACTVS_HBOND_DONOR>
4

> <PUBCHEM_CACTVS_ROTATABLE_BOND>
3

> <PUBCHEM_CACTVS_SUBSKEYS>
AAADcfB4OAAAAAAAAAAAAAAAAAAAAAAAAAAwYMGCAAAAAADAAAAAGgAACAAADxSggAICCAAAAgCIAiDSCAAAAAAgAAAACAEAAAgAEBYAAQAAQAAFoAAIAAOIyPCPgAAAAAAAAADAAAYAADAAAAAAAAAAAA==

> <PUBCHEM_IUPAC_OPENEYE_NAME>
(3S,4R,4aR,6aR,6bS,8aS,11R,12R,12aS,14aR,14bR)-3-hydroxy-11-(hydroxymethyl)-4,6a,6b,12,14b-pentamethyl-2,3,4a,5,6,7,8,9,10,11,12,12a,14,14a-tetradecahydro-1H-picene-4,8a-dicarboxylic acid

> <PUBCHEM_IUPAC_CAS_NAME>
(3S,4R,4aR,6aR,6bS,8aS,11R,12R,12aS,14aR,14bR)-3-hydroxy-11-(hydroxymethyl)-4,6a,6b,12,14b-pentamethyl-2,3,4a,5,6,7,8,9,10,11,12,12a,14,14a-tetradecahydro-1H-picene-4,8a-dicarboxylic acid

> <PUBCHEM_IUPAC_NAME_MARKUP>
(3<I>S</I>,4<I>R</I>,4<I>a</I><I>R</I>,6<I>a</I><I>R</I>,6<I>b</I><I>S</I>,8<I>a</I><I>S</I>,11<I>R</I>,12<I>R</I>,12<I>a</I><I>S</I>,14<I>a</I><I>R</I>,14<I>b</I><I>R</I>)-3-hydroxy-11-(hydroxymethyl)-4,6<I>a</I>,6<I>b</I>,12,14<I>b</I>-pentamethyl-2,3,4<I>a</I>,5,6,7,8,9,10,11,12,12<I>a</I>,14,14<I>a</I>-tetradecahydro-1<I>H</I>-picene-4,8<I>a</I>-dicarboxylic acid

> <PUBCHEM_IUPAC_NAME>
(3S,4R,4aR,6aR,6bS,8aS,11R,12R,12aS,14aR,14bR)-3-hydroxy-11-(hydroxymethyl)-4,6a,6b,12,14b-pentamethyl-2,3,4a,5,6,7,8,9,10,11,12,12a,14,14a-tetradecahydro-1H-picene-4,8a-dicarboxylic acid

> <PUBCHEM_IUPAC_SYSTEMATIC_NAME>
(3S,4R,4aR,6aR,6bS,8aS,11R,12R,12aS,14aR,14bR)-11-(hydroxymethyl)-4,6a,6b,12,14b-pentamethyl-3-oxidanyl-2,3,4a,5,6,7,8,9,10,11,12,12a,14,14a-tetradecahydro-1H-picene-4,8a-dicarboxylic acid

> <PUBCHEM_IUPAC_TRADITIONAL_NAME>
(3S,4R,4aR,6aR,6bS,8aS,11R,12R,12aS,14aR,14bR)-3-hydroxy-4,6a,6b,12,14b-pentamethyl-11-methylol-2,3,4a,5,6,7,8,9,10,11,12,12a,14,14a-tetradecahydro-1H-picene-4,8a-dicarboxylic acid

> <PUBCHEM_IUPAC_INCHI>
InChI=1S/C30H46O6/c1-17-18(16-31)8-13-30(25(35)36)15-14-27(3)19(23(17)30)6-7-20-26(2)11-10-22(32)29(5,24(33)34)21(26)9-12-28(20,27)4/h6,17-18,20-23,31-32H,7-16H2,1-5H3,(H,33,34)(H,35,36)/t17-,18-,20+,21+,22-,23-,26+,27+,28+,29+,30-/m0/s1

> <PUBCHEM_IUPAC_INCHIKEY>
GKMOQYYEKGKELF-QLSCKIPVSA-N

> <PUBCHEM_XLOGP3_AA>
5.2

> <PUBCHEM_EXACT_MASS>
502.32943918

> <PUBCHEM_MOLECULAR_FORMULA>
C30H46O6

> <PUBCHEM_MOLECULAR_WEIGHT>
502.7

> <PUBCHEM_OPENEYE_CAN_SMILES>
CC1C(CCC2(C1C3=CCC4C5(CCC(C(C5CCC4(C3(CC2)C)C)(C)C(=O)O)O)C)C(=O)O)CO

> <PUBCHEM_OPENEYE_ISO_SMILES>
C[C@H]1[C@@H](CC[C@]2([C@@H]1C3=CC[C@@H]4[C@]5(CC[C@@H]([C@]([C@@H]5CC[C@]4([C@@]3(CC2)C)C)(C)C(=O)O)O)C)C(=O)O)CO

> <PUBCHEM_CACTVS_TPSA>
115

> <PUBCHEM_MONOISOTOPIC_WEIGHT>
502.32943918

> <PUBCHEM_TOTAL_CHARGE>
0

> <PUBCHEM_HEAVY_ATOM_COUNT>
36

> <PUBCHEM_ATOM_DEF_STEREO_COUNT>
11

> <PUBCHEM_ATOM_UDEF_STEREO_COUNT>
0

> <PUBCHEM_BOND_DEF_STEREO_COUNT>
0

> <PUBCHEM_BOND_UDEF_STEREO_COUNT>
0

> <PUBCHEM_ISOTOPIC_ATOM_COUNT>
0

> <PUBCHEM_COMPONENT_COUNT>
1

> <PUBCHEM_CACTVS_TAUTO_COUNT>
-1

> <PUBCHEM_COORDINATE_TYPE>
1
5
255

> <PUBCHEM_BONDANNOTATIONS>
27  1  5
10  26  6
11  38  6
14  41  5
18  33  5
19  32  6
24  35  5
30  36  6
7  22  5
8  37  6
9  25  5

$$$$
