 
  -OEChem-10192104132D

 95100  0     1  0  0  0  0  0999 V2000
    8.2857   -2.1042    0.0000 O   0  0  0  0  0  0  0  0  0  0  0  0
    7.1979    0.2437    0.0000 O   0  0  0  0  0  0  0  0  0  0  0  0
    9.5914    0.0169    0.0000 O   0  0  0  0  0  0  0  0  0  0  0  0
   10.0888   -1.5138    0.0000 O   0  0  0  0  0  0  0  0  0  0  0  0
    8.5828    1.3652    0.0000 O   0  0  0  0  0  0  0  0  0  0  0  0
    6.3177   -2.8035    0.0000 O   0  0  0  0  0  0  0  0  0  0  0  0
    6.1101    2.1278    0.0000 O   0  0  0  0  0  0  0  0  0  0  0  0
    4.5576   -2.5248    0.0000 O   0  0  0  0  0  0  0  0  0  0  0  0
    5.6454   -4.8726    0.0000 O   0  0  0  0  0  0  0  0  0  0  0  0
    6.2034    3.9074    0.0000 O   0  0  0  0  0  0  0  0  0  0  0  0
    7.5659    3.7446    0.0000 O   0  0  0  0  0  0  0  0  0  0  0  0
    7.1400   -3.9021    0.0000 O   0  0  0  0  0  0  0  0  0  0  0  0
    3.4698   -4.8726    0.0000 O   0  0  0  0  0  0  0  0  0  0  0  0
    3.9821    2.5801    0.0000 O   0  0  0  0  0  0  0  0  0  0  0  0
   10.4194    2.3597    0.0000 O   0  0  0  0  0  0  0  0  0  0  0  0
    3.7547    4.7438    0.0000 O   0  0  0  0  0  0  0  0  0  0  0  0
    7.1012   -6.4894    0.0000 O   0  0  0  0  0  0  0  0  0  0  0  0
    9.0886   -5.6045    0.0000 O   0  0  0  0  0  0  0  0  0  0  0  0
    2.5896   -1.8254    0.0000 O   0  0  0  0  0  0  0  0  0  0  0  0
    4.9990    6.2978    0.0000 O   0  0  0  0  0  0  0  0  0  0  0  0
    9.8123   -3.7499    0.0000 O   0  0  0  0  0  0  0  0  0  0  0  0
    7.7857   -0.5653    0.0000 C   0  0  1  0  0  0  0  0  0  0  0  0
    8.7857   -0.5653    0.0000 C   0  0  1  0  0  0  0  0  0  0  0  0
    7.4767   -1.5164    0.0000 C   0  0  1  0  0  0  0  0  0  0  0  0
    9.0947   -1.5164    0.0000 C   0  0  1  0  0  0  0  0  0  0  0  0
    7.6046    1.1572    0.0000 C   0  0  1  0  0  0  0  0  0  0  0  0
    7.1046    2.0233    0.0000 C   0  0  2  0  0  0  0  0  0  0  0  0
   10.3952   -0.5681    0.0000 C   0  0  0  0  0  0  0  0  0  0  0  0
    6.5256   -1.8254    0.0000 C   0  0  0  0  0  0  0  0  0  0  0  0
    7.7738    2.7664    0.0000 C   0  0  1  0  0  0  0  0  0  0  0  0
    8.6873    2.3597    0.0000 C   0  0  1  0  0  0  0  0  0  0  0  0
    5.0576   -4.0636    0.0000 C   0  0  2  0  0  0  0  0  0  0  0  0
    5.3667   -3.1126    0.0000 C   0  0  1  0  0  0  0  0  0  0  0  0
    4.0576   -4.0636    0.0000 C   0  0  1  0  0  0  0  0  0  0  0  0
    3.7486   -3.1126    0.0000 C   0  0  1  0  0  0  0  0  0  0  0  0
    5.7034    3.0414    0.0000 C   0  0  2  0  0  0  0  0  0  0  0  0
   11.3462   -0.8771    0.0000 C   0  0  0  0  0  0  0  0  0  0  0  0
   10.9829    0.2409    0.0000 C   0  0  0  0  0  0  0  0  0  0  0  0
    4.7252    3.2493    0.0000 C   0  0  2  0  0  0  0  0  0  0  0  0
    9.5534    2.8597    0.0000 C   0  0  0  0  0  0  0  0  0  0  0  0
    4.6207    4.2438    0.0000 C   0  0  1  0  0  0  0  0  0  0  0  0
    6.6400   -4.7681    0.0000 C   0  0  2  0  0  0  0  0  0  0  0  0
    5.5343    4.6505    0.0000 C   0  0  1  0  0  0  0  0  0  0  0  0
    7.3091   -5.5112    0.0000 C   0  0  2  0  0  0  0  0  0  0  0  0
    8.2226   -5.1045    0.0000 C   0  0  1  0  0  0  0  0  0  0  0  0
    8.1181   -4.1100    0.0000 C   0  0  1  0  0  0  0  0  0  0  0  0
    2.7976   -2.8035    0.0000 C   0  0  0  0  0  0  0  0  0  0  0  0
    5.7422    5.6287    0.0000 C   0  0  0  0  0  0  0  0  0  0  0  0
    8.8612   -3.4408    0.0000 C   0  0  0  0  0  0  0  0  0  0  0  0
    8.0672   -0.0129    0.0000 H   0  0  0  0  0  0  0  0  0  0  0  0
    8.5241    0.2434    0.0000 H   0  0  0  0  0  0  0  0  0  0  0  0
    7.3797   -2.1287    0.0000 H   0  0  0  0  0  0  0  0  0  0  0  0
    9.3584   -2.3244    0.0000 H   0  0  0  0  0  0  0  0  0  0  0  0
    6.9855    1.1248    0.0000 H   0  0  0  0  0  0  0  0  0  0  0  0
    6.8825    2.6021    0.0000 H   0  0  0  0  0  0  0  0  0  0  0  0
    6.4393   -1.2114    0.0000 H   0  0  0  0  0  0  0  0  0  0  0  0
    5.9060   -1.8038    0.0000 H   0  0  0  0  0  0  0  0  0  0  0  0
    8.2556    3.1566    0.0000 H   0  0  0  0  0  0  0  0  0  0  0  0
    9.2073    2.0220    0.0000 H   0  0  0  0  0  0  0  0  0  0  0  0
    5.6700   -3.9666    0.0000 H   0  0  0  0  0  0  0  0  0  0  0  0
    5.4636   -2.5002    0.0000 H   0  0  0  0  0  0  0  0  0  0  0  0
    3.4453   -3.9666    0.0000 H   0  0  0  0  0  0  0  0  0  0  0  0
    3.6516   -2.5002    0.0000 H   0  0  0  0  0  0  0  0  0  0  0  0
    5.3132    2.5595    0.0000 H   0  0  0  0  0  0  0  0  0  0  0  0
   11.1546   -1.4668    0.0000 H   0  0  0  0  0  0  0  0  0  0  0  0
   11.9359   -1.0687    0.0000 H   0  0  0  0  0  0  0  0  0  0  0  0
   11.5378   -0.2875    0.0000 H   0  0  0  0  0  0  0  0  0  0  0  0
   11.4845   -0.1235    0.0000 H   0  0  0  0  0  0  0  0  0  0  0  0
   11.3474    0.7425    0.0000 H   0  0  0  0  0  0  0  0  0  0  0  0
   10.4814    0.6053    0.0000 H   0  0  0  0  0  0  0  0  0  0  0  0
    4.8857    2.6504    0.0000 H   0  0  0  0  0  0  0  0  0  0  0  0
    9.9519    3.3346    0.0000 H   0  0  0  0  0  0  0  0  0  0  0  0
    9.1548    3.3346    0.0000 H   0  0  0  0  0  0  0  0  0  0  0  0
    4.1007    3.9061    0.0000 H   0  0  0  0  0  0  0  0  0  0  0  0
    6.3023   -4.2481    0.0000 H   0  0  0  0  0  0  0  0  0  0  0  0
    6.1331    4.8110    0.0000 H   0  0  0  0  0  0  0  0  0  0  0  0
    6.7102   -5.6717    0.0000 H   0  0  0  0  0  0  0  0  0  0  0  0
    8.7426   -4.7668    0.0000 H   0  0  0  0  0  0  0  0  0  0  0  0
    7.9576   -3.5111    0.0000 H   0  0  0  0  0  0  0  0  0  0  0  0
    8.0266    4.1594    0.0000 H   0  0  0  0  0  0  0  0  0  0  0  0
    2.1779   -2.8252    0.0000 H   0  0  0  0  0  0  0  0  0  0  0  0
    2.7113   -3.4175    0.0000 H   0  0  0  0  0  0  0  0  0  0  0  0
    6.3170    5.3964    0.0000 H   0  0  0  0  0  0  0  0  0  0  0  0
    6.0707    6.1545    0.0000 H   0  0  0  0  0  0  0  0  0  0  0  0
    2.8532   -4.8078    0.0000 H   0  0  0  0  0  0  0  0  0  0  0  0
    9.1523   -2.8934    0.0000 H   0  0  0  0  0  0  0  0  0  0  0  0
    8.3727   -3.0591    0.0000 H   0  0  0  0  0  0  0  0  0  0  0  0
    3.3924    2.7717    0.0000 H   0  0  0  0  0  0  0  0  0  0  0  0
   10.9563    2.6697    0.0000 H   0  0  0  0  0  0  0  0  0  0  0  0
    3.7547    5.3638    0.0000 H   0  0  0  0  0  0  0  0  0  0  0  0
    7.5619   -6.9042    0.0000 H   0  0  0  0  0  0  0  0  0  0  0  0
    9.0886   -6.2245    0.0000 H   0  0  0  0  0  0  0  0  0  0  0  0
    2.0000   -1.6338    0.0000 H   0  0  0  0  0  0  0  0  0  0  0  0
    5.1279    6.9042    0.0000 H   0  0  0  0  0  0  0  0  0  0  0  0
   10.2730   -3.3350    0.0000 H   0  0  0  0  0  0  0  0  0  0  0  0
  1 24  1  0  0  0  0
  1 25  1  0  0  0  0
 22  2  1  1  0  0  0
 26  2  1  6  0  0  0
  3 23  1  0  0  0  0
  3 28  1  0  0  0  0
  4 25  1  0  0  0  0
  4 28  1  0  0  0  0
  5 26  1  0  0  0  0
  5 31  1  0  0  0  0
  6 29  1  0  0  0  0
 33  6  1  6  0  0  0
 27  7  1  1  0  0  0
 36  7  1  1  0  0  0
  8 33  1  0  0  0  0
  8 35  1  0  0  0  0
 32  9  1  1  0  0  0
 42  9  1  6  0  0  0
 10 36  1  0  0  0  0
 10 43  1  0  0  0  0
 30 11  1  6  0  0  0
 11 80  1  0  0  0  0
 12 42  1  0  0  0  0
 12 46  1  0  0  0  0
 34 13  1  6  0  0  0
 13 85  1  0  0  0  0
 39 14  1  1  0  0  0
 14 88  1  0  0  0  0
 15 40  1  0  0  0  0
 15 89  1  0  0  0  0
 41 16  1  6  0  0  0
 16 90  1  0  0  0  0
 44 17  1  6  0  0  0
 17 91  1  0  0  0  0
 45 18  1  1  0  0  0
 18 92  1  0  0  0  0
 19 47  1  0  0  0  0
 19 93  1  0  0  0  0
 20 48  1  0  0  0  0
 20 94  1  0  0  0  0
 21 49  1  0  0  0  0
 21 95  1  0  0  0  0
 22 23  1  0  0  0  0
 22 24  1  0  0  0  0
 22 50  1  0  0  0  0
 23 25  1  0  0  0  0
 23 51  1  1  0  0  0
 24 29  1  6  0  0  0
 24 52  1  0  0  0  0
 25 53  1  1  0  0  0
 26 27  1  0  0  0  0
 26 54  1  0  0  0  0
 27 30  1  0  0  0  0
 27 55  1  0  0  0  0
 28 37  1  0  0  0  0
 28 38  1  0  0  0  0
 29 56  1  0  0  0  0
 29 57  1  0  0  0  0
 30 31  1  0  0  0  0
 30 58  1  0  0  0  0
 31 40  1  1  0  0  0
 31 59  1  0  0  0  0
 32 33  1  0  0  0  0
 32 34  1  0  0  0  0
 32 60  1  0  0  0  0
 33 61  1  0  0  0  0
 34 35  1  0  0  0  0
 34 62  1  0  0  0  0
 35 47  1  1  0  0  0
 35 63  1  0  0  0  0
 36 39  1  0  0  0  0
 36 64  1  0  0  0  0
 37 65  1  0  0  0  0
 37 66  1  0  0  0  0
 37 67  1  0  0  0  0
 38 68  1  0  0  0  0
 38 69  1  0  0  0  0
 38 70  1  0  0  0  0
 39 41  1  0  0  0  0
 39 71  1  0  0  0  0
 40 72  1  0  0  0  0
 40 73  1  0  0  0  0
 41 43  1  0  0  0  0
 41 74  1  0  0  0  0
 42 44  1  0  0  0  0
 42 75  1  0  0  0  0
 43 48  1  1  0  0  0
 43 76  1  0  0  0  0
 44 45  1  0  0  0  0
 44 77  1  0  0  0  0
 45 46  1  0  0  0  0
 45 78  1  0  0  0  0
 46 49  1  6  0  0  0
 46 79  1  0  0  0  0
 47 81  1  0  0  0  0
 47 82  1  0  0  0  0
 48 83  1  0  0  0  0
 48 84  1  0  0  0  0
 49 86  1  0  0  0  0
 49 87  1  0  0  0  0
M  END
> <PUBCHEM_COMPOUND_CID>
101944021

> <PUBCHEM_COMPOUND_CANONICALIZED>
1

> <PUBCHEM_CACTVS_COMPLEXITY>
1090

> <PUBCHEM_CACTVS_HBOND_ACCEPTOR>
21

> <PUBCHEM_CACTVS_HBOND_DONOR>
10

> <PUBCHEM_CACTVS_ROTATABLE_BOND>
13

> <PUBCHEM_CACTVS_SUBSKEYS>
AAADcfB4PgAAAAAAAAAAAAAAAAAAASJEiRIAAAAAAAASAAAAAAAAGgAACAAACBSwgAMCCAAABgAAAAAAAAAAAAAAAAAAAAAAAAAREAIAAAAiQAAFAAAHAADAIAgAAAAAAAAAAAAAAAAAAAAAAAAAAAAAAA==

> <PUBCHEM_IUPAC_OPENEYE_NAME>
(2S,3S,4S,5R)-2-[(2S,3S,4R,5R)-2-[[(3aS,5R,6R,6aS)-6-[(2R,3S,4R,5R)-3-[(2S,3S,4S,5R)-3,4-dihydroxy-5-(hydroxymethyl)tetrahydrofuran-2-yl]oxy-4-hydroxy-5-(hydroxymethyl)tetrahydrofuran-2-yl]oxy-2,2-dimethyl-3a,5,6,6a-tetrahydrofuro[2,3-d][1,3]dioxol-5-yl]methoxy]-4-hydroxy-5-(hydroxymethyl)tetrahydrofuran-3-yl]oxy-5-(hydroxymethyl)tetrahydrofuran-3,4-diol

> <PUBCHEM_IUPAC_CAS_NAME>
(2S,3S,4S,5R)-2-[[(2S,3S,4R,5R)-2-[[(3aS,5R,6R,6aS)-6-[[(2R,3S,4R,5R)-3-[[(2S,3S,4S,5R)-3,4-dihydroxy-5-(hydroxymethyl)-2-oxolanyl]oxy]-4-hydroxy-5-(hydroxymethyl)-2-oxolanyl]oxy]-2,2-dimethyl-3a,5,6,6a-tetrahydrofuro[2,3-d][1,3]dioxol-5-yl]methoxy]-4-hydroxy-5-(hydroxymethyl)-3-oxolanyl]oxy]-5-(hydroxymethyl)oxolane-3,4-diol

> <PUBCHEM_IUPAC_NAME_MARKUP>
(2<I>S</I>,3<I>S</I>,4<I>S</I>,5<I>R</I>)-2-[(2<I>S</I>,3<I>S</I>,4<I>R</I>,5<I>R</I>)-2-[[(3<I>a</I><I>S</I>,5<I>R</I>,6<I>R</I>,6<I>a</I><I>S</I>)-6-[(2<I>R</I>,3<I>S</I>,4<I>R</I>,5<I>R</I>)-3-[(2<I>S</I>,3<I>S</I>,4<I>S</I>,5<I>R</I>)-3,4-dihydroxy-5-(hydroxymethyl)oxolan-2-yl]oxy-4-hydroxy-5-(hydroxymethyl)oxolan-2-yl]oxy-2,2-dimethyl-3<I>a</I>,5,6,6<I>a</I>-tetrahydrofuro[2,3-d][1,3]dioxol-5-yl]methoxy]-4-hydroxy-5-(hydroxymethyl)oxolan-3-yl]oxy-5-(hydroxymethyl)oxolane-3,4-diol

> <PUBCHEM_IUPAC_NAME>
(2S,3S,4S,5R)-2-[(2S,3S,4R,5R)-2-[[(3aS,5R,6R,6aS)-6-[(2R,3S,4R,5R)-3-[(2S,3S,4S,5R)-3,4-dihydroxy-5-(hydroxymethyl)oxolan-2-yl]oxy-4-hydroxy-5-(hydroxymethyl)oxolan-2-yl]oxy-2,2-dimethyl-3a,5,6,6a-tetrahydrofuro[2,3-d][1,3]dioxol-5-yl]methoxy]-4-hydroxy-5-(hydroxymethyl)oxolan-3-yl]oxy-5-(hydroxymethyl)oxolane-3,4-diol

> <PUBCHEM_IUPAC_SYSTEMATIC_NAME>
(2S,3S,4S,5R)-2-[(2S,3S,4R,5R)-2-[[(3aS,5R,6R,6aS)-6-[(2R,3S,4R,5R)-5-(hydroxymethyl)-3-[(2S,3S,4S,5R)-5-(hydroxymethyl)-3,4-bis(oxidanyl)oxolan-2-yl]oxy-4-oxidanyl-oxolan-2-yl]oxy-2,2-dimethyl-3a,5,6,6a-tetrahydrofuro[2,3-d][1,3]dioxol-5-yl]methoxy]-5-(hydroxymethyl)-4-oxidanyl-oxolan-3-yl]oxy-5-(hydroxymethyl)oxolane-3,4-diol

> <PUBCHEM_IUPAC_TRADITIONAL_NAME>
(2S,3S,4S,5R)-2-[(2S,3S,4R,5R)-2-[[(3aS,5R,6R,6aS)-6-[(2R,3S,4R,5R)-3-[(2S,3S,4S,5R)-3,4-dihydroxy-5-methylol-tetrahydrofuran-2-yl]oxy-4-hydroxy-5-methylol-tetrahydrofuran-2-yl]oxy-2,2-dimethyl-3a,5,6,6a-tetrahydrofuro[2,3-d][1,3]dioxol-5-yl]methoxy]-4-hydroxy-5-methylol-tetrahydrofuran-3-yl]oxy-5-methylol-tetrahydrofuran-3,4-diol

> <PUBCHEM_IUPAC_INCHI>
InChI=1S/C28H46O21/c1-28(2)48-22-19(45-26-21(16(36)11(6-32)43-26)47-24-18(38)14(34)9(4-30)41-24)12(44-27(22)49-28)7-39-25-20(15(35)10(5-31)42-25)46-23-17(37)13(33)8(3-29)40-23/h8-27,29-38H,3-7H2,1-2H3/t8-,9-,10-,11-,12-,13-,14-,15-,16-,17+,18+,19-,20+,21+,22+,23+,24+,25+,26-,27+/m1/s1

> <PUBCHEM_IUPAC_INCHIKEY>
GCVCKKVBFDOBNI-PPSVCQJYSA-N

> <PUBCHEM_XLOGP3_AA>
-4.9

> <PUBCHEM_EXACT_MASS>
718.25315847

> <PUBCHEM_MOLECULAR_FORMULA>
C28H46O21

> <PUBCHEM_MOLECULAR_WEIGHT>
718.7

> <PUBCHEM_OPENEYE_CAN_SMILES>
CC1(OC2C(C(OC2O1)COC3C(C(C(O3)CO)O)OC4C(C(C(O4)CO)O)O)OC5C(C(C(O5)CO)O)OC6C(C(C(O6)CO)O)O)C

> <PUBCHEM_OPENEYE_ISO_SMILES>
CC1(O[C@H]2[C@@H]([C@H](O[C@H]2O1)CO[C@@H]3[C@H]([C@@H]([C@H](O3)CO)O)O[C@H]4[C@H]([C@@H]([C@H](O4)CO)O)O)O[C@@H]5[C@H]([C@@H]([C@H](O5)CO)O)O[C@H]6[C@H]([C@@H]([C@H](O6)CO)O)O)C

> <PUBCHEM_CACTVS_TPSA>
304

> <PUBCHEM_MONOISOTOPIC_WEIGHT>
718.25315847

> <PUBCHEM_TOTAL_CHARGE>
0

> <PUBCHEM_HEAVY_ATOM_COUNT>
49

> <PUBCHEM_ATOM_DEF_STEREO_COUNT>
20

> <PUBCHEM_ATOM_UDEF_STEREO_COUNT>
0

> <PUBCHEM_BOND_DEF_STEREO_COUNT>
0

> <PUBCHEM_BOND_UDEF_STEREO_COUNT>
0

> <PUBCHEM_ISOTOPIC_ATOM_COUNT>
0

> <PUBCHEM_COMPONENT_COUNT>
1

> <PUBCHEM_CACTVS_TAUTO_COUNT>
-1

> <PUBCHEM_COORDINATE_TYPE>
1
5
255

> <PUBCHEM_BONDANNOTATIONS>
30  11  6
34  13  6
39  14  5
41  16  6
44  17  6
45  18  5
22  2  5
26  2  6
23  51  5
24  29  6
25  53  5
31  40  5
35  47  5
43  48  5
46  49  6
33  6  6
27  7  5
36  7  5
32  9  5
42  9  6

$$$$
