 
  -OEChem-10192104212D

 63 63  0     1  0  0  0  0  0999 V2000
    7.1906    2.4328    0.0000 O   0  0  0  0  0  0  0  0  0  0  0  0
    6.5567    0.0667    0.0000 O   0  0  0  0  0  0  0  0  0  0  0  0
    4.2731   -3.6257    0.0000 O   0  0  0  0  0  0  0  0  0  0  0  0
    5.7276   -1.6548    0.0000 O   0  0  0  0  0  0  0  0  0  0  0  0
    5.6906    3.2988    0.0000 O   0  0  0  0  0  0  0  0  0  0  0  0
    7.4227    1.5667    0.0000 O   0  0  0  0  0  0  0  0  0  0  0  0
    2.6607   -2.9929    0.0000 O   0  0  0  0  0  0  0  0  0  0  0  0
    5.0948   -3.2672    0.0000 O   0  0  0  0  0  0  0  0  0  0  0  0
    4.1906    0.7007    0.0000 C   0  0  3  0  0  0  0  0  0  0  0  0
    3.7568   -0.2003    0.0000 C   0  0  3  0  0  0  0  0  0  0  0  0
    3.7568    1.6017    0.0000 C   0  0  3  0  0  0  0  0  0  0  0  0
    2.7818   -0.4228    0.0000 C   0  0  3  0  0  0  0  0  0  0  0  0
    2.7818    1.8242    0.0000 C   0  0  0  0  0  0  0  0  0  0  0  0
    5.1906    0.7007    0.0000 C   0  0  0  0  0  0  0  0  0  0  0  0
    4.3802   -0.9821    0.0000 C   0  0  0  0  0  0  0  0  0  0  0  0
    2.0000    0.2007    0.0000 C   0  0  0  0  0  0  0  0  0  0  0  0
    2.0000    1.2007    0.0000 C   0  0  0  0  0  0  0  0  0  0  0  0
    3.9058    2.5905    0.0000 C   0  0  0  0  0  0  0  0  0  0  0  0
    5.6906    1.5667    0.0000 C   0  0  0  0  0  0  0  0  0  0  0  0
    4.0149   -1.9130    0.0000 C   0  0  0  0  0  0  0  0  0  0  0  0
    2.1017   -1.1559    0.0000 C   0  0  0  0  0  0  0  0  0  0  0  0
    3.1240    3.2140    0.0000 C   0  0  0  0  0  0  0  0  0  0  0  0
    5.1906    2.4328    0.0000 C   0  0  0  0  0  0  0  0  0  0  0  0
    3.0261   -2.0620    0.0000 C   0  0  0  0  0  0  0  0  0  0  0  0
    6.1906    2.4328    0.0000 C   0  0  0  0  0  0  0  0  0  0  0  0
    6.5567    1.0667    0.0000 C   0  0  0  0  0  0  0  0  0  0  0  0
    3.6496   -2.8439    0.0000 C   0  0  0  0  0  0  0  0  0  0  0  0
    4.9458   -2.2783    0.0000 C   0  0  0  0  0  0  0  0  0  0  0  0
    3.2730    4.2028    0.0000 C   0  0  0  0  0  0  0  0  0  0  0  0
    4.5205    0.1757    0.0000 H   0  0  0  0  0  0  0  0  0  0  0  0
    3.5520   -0.7855    0.0000 H   0  0  0  0  0  0  0  0  0  0  0  0
    4.3698    1.6941    0.0000 H   0  0  0  0  0  0  0  0  0  0  0  0
    3.0918   -0.9597    0.0000 H   0  0  0  0  0  0  0  0  0  0  0  0
    3.0508    2.3828    0.0000 H   0  0  0  0  0  0  0  0  0  0  0  0
    2.2971    2.2108    0.0000 H   0  0  0  0  0  0  0  0  0  0  0  0
    5.0830    0.0901    0.0000 H   0  0  0  0  0  0  0  0  0  0  0  0
    5.7732    0.4886    0.0000 H   0  0  0  0  0  0  0  0  0  0  0  0
    4.9093   -1.3054    0.0000 H   0  0  0  0  0  0  0  0  0  0  0  0
    4.7905   -0.5172    0.0000 H   0  0  0  0  0  0  0  0  0  0  0  0
    1.3955    0.3387    0.0000 H   0  0  0  0  0  0  0  0  0  0  0  0
    1.7310   -0.3579    0.0000 H   0  0  0  0  0  0  0  0  0  0  0  0
    1.7310    1.7593    0.0000 H   0  0  0  0  0  0  0  0  0  0  0  0
    1.3955    1.0627    0.0000 H   0  0  0  0  0  0  0  0  0  0  0  0
    4.4935    2.3930    0.0000 H   0  0  0  0  0  0  0  0  0  0  0  0
    4.2023    3.1350    0.0000 H   0  0  0  0  0  0  0  0  0  0  0  0
    1.6472   -0.7342    0.0000 H   0  0  0  0  0  0  0  0  0  0  0  0
    1.6800   -1.6104    0.0000 H   0  0  0  0  0  0  0  0  0  0  0  0
    2.5562   -1.5776    0.0000 H   0  0  0  0  0  0  0  0  0  0  0  0
    2.5363    3.4114    0.0000 H   0  0  0  0  0  0  0  0  0  0  0  0
    2.8274    2.6695    0.0000 H   0  0  0  0  0  0  0  0  0  0  0  0
    5.7276    2.7428    0.0000 H   0  0  0  0  0  0  0  0  0  0  0  0
    4.8806    2.9697    0.0000 H   0  0  0  0  0  0  0  0  0  0  0  0
    4.6537    2.1228    0.0000 H   0  0  0  0  0  0  0  0  0  0  0  0
    2.9337   -1.4489    0.0000 H   0  0  0  0  0  0  0  0  0  0  0  0
    2.4130   -2.1544    0.0000 H   0  0  0  0  0  0  0  0  0  0  0  0
    3.1185   -2.6751    0.0000 H   0  0  0  0  0  0  0  0  0  0  0  0
    3.8861    4.1104    0.0000 H   0  0  0  0  0  0  0  0  0  0  0  0
    3.3654    4.8159    0.0000 H   0  0  0  0  0  0  0  0  0  0  0  0
    2.6599    4.2952    0.0000 H   0  0  0  0  0  0  0  0  0  0  0  0
    7.5006    2.9697    0.0000 H   0  0  0  0  0  0  0  0  0  0  0  0
    7.0936   -0.2433    0.0000 H   0  0  0  0  0  0  0  0  0  0  0  0
    4.0466   -4.2028    0.0000 H   0  0  0  0  0  0  0  0  0  0  0  0
    6.3048   -1.8813    0.0000 H   0  0  0  0  0  0  0  0  0  0  0  0
  1 25  1  0  0  0  0
  1 60  1  0  0  0  0
  2 26  1  0  0  0  0
  2 61  1  0  0  0  0
  3 27  1  0  0  0  0
  3 62  1  0  0  0  0
  4 28  1  0  0  0  0
  4 63  1  0  0  0  0
  5 25  2  0  0  0  0
  6 26  2  0  0  0  0
  7 27  2  0  0  0  0
  8 28  2  0  0  0  0
  9 10  1  0  0  0  0
  9 11  1  0  0  0  0
  9 14  1  0  0  0  0
  9 30  1  0  0  0  0
 10 12  1  0  0  0  0
 10 15  1  0  0  0  0
 10 31  1  0  0  0  0
 11 13  1  0  0  0  0
 11 18  1  0  0  0  0
 11 32  1  0  0  0  0
 12 16  1  0  0  0  0
 12 21  1  0  0  0  0
 12 33  1  0  0  0  0
 13 17  1  0  0  0  0
 13 34  1  0  0  0  0
 13 35  1  0  0  0  0
 14 19  1  0  0  0  0
 14 36  1  0  0  0  0
 14 37  1  0  0  0  0
 15 20  1  0  0  0  0
 15 38  1  0  0  0  0
 15 39  1  0  0  0  0
 16 17  1  0  0  0  0
 16 40  1  0  0  0  0
 16 41  1  0  0  0  0
 17 42  1  0  0  0  0
 17 43  1  0  0  0  0
 18 22  1  0  0  0  0
 18 44  1  0  0  0  0
 18 45  1  0  0  0  0
 19 23  1  0  0  0  0
 19 25  1  0  0  0  0
 19 26  1  0  0  0  0
 20 24  1  0  0  0  0
 20 27  1  0  0  0  0
 20 28  1  0  0  0  0
 21 46  1  0  0  0  0
 21 47  1  0  0  0  0
 21 48  1  0  0  0  0
 22 29  1  0  0  0  0
 22 49  1  0  0  0  0
 22 50  1  0  0  0  0
 23 51  1  0  0  0  0
 23 52  1  0  0  0  0
 23 53  1  0  0  0  0
 24 54  1  0  0  0  0
 24 55  1  0  0  0  0
 24 56  1  0  0  0  0
 29 57  1  0  0  0  0
 29 58  1  0  0  0  0
 29 59  1  0  0  0  0
M  END
> <PUBCHEM_COMPOUND_CID>
68417303

> <PUBCHEM_COMPOUND_CANONICALIZED>
1

> <PUBCHEM_CACTVS_COMPLEXITY>
613

> <PUBCHEM_CACTVS_HBOND_ACCEPTOR>
8

> <PUBCHEM_CACTVS_HBOND_DONOR>
4

> <PUBCHEM_CACTVS_ROTATABLE_BOND>
10

> <PUBCHEM_CACTVS_SUBSKEYS>
AAADcfB4PAAAAAAAAAAAAAAAAAAAAAAAAAAAAAAABgAAAAAAAAAAGgAACAAADwCAgAACCAAAAgAIAACQCAAAAAAAAAAAAAEAAAAAABYIAAAAQAAFIAAAAAGIyPCPgAAAAAAAAAAAAAAAAAAAAAAAAAAAAA==

> <PUBCHEM_IUPAC_OPENEYE_NAME>
2-[[2-(2,2-dicarboxypropyl)-7-methyl-3-propyl-cycloheptyl]methyl]-2-methyl-propanedioic acid

> <PUBCHEM_IUPAC_CAS_NAME>
2-[[2-(2,2-dicarboxypropyl)-7-methyl-3-propylcycloheptyl]methyl]-2-methylpropanedioic acid

> <PUBCHEM_IUPAC_NAME_MARKUP>
2-[[2-(2,2-dicarboxypropyl)-7-methyl-3-propylcycloheptyl]methyl]-2-methylpropanedioic acid

> <PUBCHEM_IUPAC_NAME>
2-[[2-(2,2-dicarboxypropyl)-7-methyl-3-propylcycloheptyl]methyl]-2-methylpropanedioic acid

> <PUBCHEM_IUPAC_SYSTEMATIC_NAME>
2-[[2-(2-carboxy-2-methyl-3-oxidanyl-3-oxidanylidene-propyl)-7-methyl-3-propyl-cycloheptyl]methyl]-2-methyl-propanedioic acid

> <PUBCHEM_IUPAC_TRADITIONAL_NAME>
2-[[2-(2,2-dicarboxypropyl)-7-methyl-3-propyl-cycloheptyl]methyl]-2-methyl-malonic acid

> <PUBCHEM_IUPAC_INCHI>
InChI=1S/C21H34O8/c1-5-7-13-9-6-8-12(2)14(10-20(3,16(22)23)17(24)25)15(13)11-21(4,18(26)27)19(28)29/h12-15H,5-11H2,1-4H3,(H,22,23)(H,24,25)(H,26,27)(H,28,29)

> <PUBCHEM_IUPAC_INCHIKEY>
BPRWYNJYWQDFDT-UHFFFAOYSA-N

> <PUBCHEM_XLOGP3_AA>
4.8

> <PUBCHEM_EXACT_MASS>
414.22536804

> <PUBCHEM_MOLECULAR_FORMULA>
C21H34O8

> <PUBCHEM_MOLECULAR_WEIGHT>
414.5

> <PUBCHEM_OPENEYE_CAN_SMILES>
CCCC1CCCC(C(C1CC(C)(C(=O)O)C(=O)O)CC(C)(C(=O)O)C(=O)O)C

> <PUBCHEM_OPENEYE_ISO_SMILES>
CCCC1CCCC(C(C1CC(C)(C(=O)O)C(=O)O)CC(C)(C(=O)O)C(=O)O)C

> <PUBCHEM_CACTVS_TPSA>
149

> <PUBCHEM_MONOISOTOPIC_WEIGHT>
414.22536804

> <PUBCHEM_TOTAL_CHARGE>
0

> <PUBCHEM_HEAVY_ATOM_COUNT>
29

> <PUBCHEM_ATOM_DEF_STEREO_COUNT>
0

> <PUBCHEM_ATOM_UDEF_STEREO_COUNT>
4

> <PUBCHEM_BOND_DEF_STEREO_COUNT>
0

> <PUBCHEM_BOND_UDEF_STEREO_COUNT>
0

> <PUBCHEM_ISOTOPIC_ATOM_COUNT>
0

> <PUBCHEM_COMPONENT_COUNT>
1

> <PUBCHEM_CACTVS_TAUTO_COUNT>
-1

> <PUBCHEM_COORDINATE_TYPE>
1
5
255

> <PUBCHEM_BONDANNOTATIONS>
10  15  3
11  18  3
12  21  3
9  14  3

$$$$
