 
  -OEChem-10192103262D

 71 71  0     1  0  0  0  0  0999 V2000
   14.1244   -1.2500    0.0000 O   0  0  0  0  0  0  0  0  0  0  0  0
    8.9282   -1.2500    0.0000 O   0  0  0  0  0  0  0  0  0  0  0  0
   14.1244   -3.2500    0.0000 O   0  0  0  0  0  0  0  0  0  0  0  0
    5.4641   -1.2500    0.0000 O   0  0  0  0  0  0  0  0  0  0  0  0
    7.1962   -1.2500    0.0000 O   0  0  0  0  0  0  0  0  0  0  0  0
    4.5981   -2.7500    0.0000 O   0  0  0  0  0  0  0  0  0  0  0  0
    5.4641   -0.2500    0.0000 O   0  0  0  0  0  0  0  0  0  0  0  0
    6.3301    3.2500    0.0000 O   0  0  0  0  0  0  0  0  0  0  0  0
    8.0622   -2.7500    0.0000 O   0  0  0  0  0  0  0  0  0  0  0  0
   15.8564   -1.2500    0.0000 O   0  5  0  0  0  0  0  0  0  0  0  0
   14.9904   -2.7500    0.0000 O   0  0  0  0  0  0  0  0  0  0  0  0
   14.9904   -4.7500    0.0000 O   0  5  0  0  0  0  0  0  0  0  0  0
   13.2583   -4.7500    0.0000 O   0  0  0  0  0  0  0  0  0  0  0  0
    7.1962    4.7500    0.0000 O   0  5  0  0  0  0  0  0  0  0  0  0
    5.4641    4.7500    0.0000 O   0  0  0  0  0  0  0  0  0  0  0  0
    3.7320   -0.2500    0.0000 N   0  0  0  0  0  0  0  0  0  0  0  0
   14.9904   -1.7500    0.0000 N   0  3  0  0  0  0  0  0  0  0  0  0
   14.1244   -4.2500    0.0000 N   0  3  0  0  0  0  0  0  0  0  0  0
    6.3301    4.2500    0.0000 N   0  3  0  0  0  0  0  0  0  0  0  0
   12.3923   -1.2500    0.0000 C   0  0  0  0  0  0  0  0  0  0  0  0
   11.5263   -1.7500    0.0000 C   0  0  0  0  0  0  0  0  0  0  0  0
   13.2583   -1.7500    0.0000 C   0  0  3  0  0  0  0  0  0  0  0  0
   10.6603   -1.2500    0.0000 C   0  0  0  0  0  0  0  0  0  0  0  0
    3.7320   -1.2500    0.0000 C   0  0  3  0  0  0  0  0  0  0  0  0
   13.2583   -2.7500    0.0000 C   0  0  0  0  0  0  0  0  0  0  0  0
    2.8660   -1.7500    0.0000 C   0  0  0  0  0  0  0  0  0  0  0  0
    9.7942   -1.7500    0.0000 C   0  0  0  0  0  0  0  0  0  0  0  0
    2.8660   -2.7500    0.0000 C   0  0  0  0  0  0  0  0  0  0  0  0
    4.5981   -1.7500    0.0000 C   0  0  0  0  0  0  0  0  0  0  0  0
    4.5981    1.2500    0.0000 C   0  0  0  0  0  0  0  0  0  0  0  0
    4.5981    0.2500    0.0000 C   0  0  0  0  0  0  0  0  0  0  0  0
    5.4641    1.7500    0.0000 C   0  0  0  0  0  0  0  0  0  0  0  0
    3.7320   -3.2500    0.0000 C   0  0  0  0  0  0  0  0  0  0  0  0
    2.0000   -3.2500    0.0000 C   0  0  0  0  0  0  0  0  0  0  0  0
    6.3301   -1.7500    0.0000 C   0  0  3  0  0  0  0  0  0  0  0  0
    5.4641    2.7500    0.0000 C   0  0  0  0  0  0  0  0  0  0  0  0
    3.7320   -4.2500    0.0000 C   0  0  0  0  0  0  0  0  0  0  0  0
    2.0000   -4.2500    0.0000 C   0  0  0  0  0  0  0  0  0  0  0  0
    8.0622   -1.7500    0.0000 C   0  0  0  0  0  0  0  0  0  0  0  0
    2.8660   -4.7500    0.0000 C   0  0  0  0  0  0  0  0  0  0  0  0
    6.3301   -2.7500    0.0000 C   0  0  0  0  0  0  0  0  0  0  0  0
   12.7908   -0.7751    0.0000 H   0  0  0  0  0  0  0  0  0  0  0  0
   11.9938   -0.7751    0.0000 H   0  0  0  0  0  0  0  0  0  0  0  0
   11.1278   -2.2250    0.0000 H   0  0  0  0  0  0  0  0  0  0  0  0
   11.9248   -2.2250    0.0000 H   0  0  0  0  0  0  0  0  0  0  0  0
   13.7953   -2.0600    0.0000 H   0  0  0  0  0  0  0  0  0  0  0  0
   11.0588   -0.7751    0.0000 H   0  0  0  0  0  0  0  0  0  0  0  0
   10.2617   -0.7751    0.0000 H   0  0  0  0  0  0  0  0  0  0  0  0
    4.2690   -0.9400    0.0000 H   0  0  0  0  0  0  0  0  0  0  0  0
   12.6477   -2.6423    0.0000 H   0  0  0  0  0  0  0  0  0  0  0  0
   13.0463   -3.3326    0.0000 H   0  0  0  0  0  0  0  0  0  0  0  0
    2.6540   -1.1674    0.0000 H   0  0  0  0  0  0  0  0  0  0  0  0
    2.2554   -1.8577    0.0000 H   0  0  0  0  0  0  0  0  0  0  0  0
    9.3957   -2.2250    0.0000 H   0  0  0  0  0  0  0  0  0  0  0  0
   10.1928   -2.2250    0.0000 H   0  0  0  0  0  0  0  0  0  0  0  0
    3.1951    0.0600    0.0000 H   0  0  0  0  0  0  0  0  0  0  0  0
    4.3860    1.8326    0.0000 H   0  0  0  0  0  0  0  0  0  0  0  0
    3.9875    1.1423    0.0000 H   0  0  0  0  0  0  0  0  0  0  0  0
    5.6762    1.1674    0.0000 H   0  0  0  0  0  0  0  0  0  0  0  0
    6.0747    1.8577    0.0000 H   0  0  0  0  0  0  0  0  0  0  0  0
    4.2690   -2.9400    0.0000 H   0  0  0  0  0  0  0  0  0  0  0  0
    1.4631   -2.9400    0.0000 H   0  0  0  0  0  0  0  0  0  0  0  0
    6.8671   -2.0600    0.0000 H   0  0  0  0  0  0  0  0  0  0  0  0
    5.2520    3.3326    0.0000 H   0  0  0  0  0  0  0  0  0  0  0  0
    4.8535    2.6423    0.0000 H   0  0  0  0  0  0  0  0  0  0  0  0
    4.2690   -4.5600    0.0000 H   0  0  0  0  0  0  0  0  0  0  0  0
    1.4631   -4.5600    0.0000 H   0  0  0  0  0  0  0  0  0  0  0  0
    2.8660   -5.3700    0.0000 H   0  0  0  0  0  0  0  0  0  0  0  0
    5.7101   -2.7500    0.0000 H   0  0  0  0  0  0  0  0  0  0  0  0
    6.3301   -3.3700    0.0000 H   0  0  0  0  0  0  0  0  0  0  0  0
    6.9501   -2.7500    0.0000 H   0  0  0  0  0  0  0  0  0  0  0  0
  1 17  1  0  0  0  0
  1 22  1  0  0  0  0
  2 27  1  0  0  0  0
  2 39  1  0  0  0  0
  3 18  1  0  0  0  0
  3 25  1  0  0  0  0
  4 29  1  0  0  0  0
  4 35  1  0  0  0  0
  5 35  1  0  0  0  0
  5 39  1  0  0  0  0
  6 29  2  0  0  0  0
  7 31  2  0  0  0  0
  8 19  1  0  0  0  0
  8 36  1  0  0  0  0
  9 39  2  0  0  0  0
 10 17  1  0  0  0  0
 11 17  2  0  0  0  0
 12 18  1  0  0  0  0
 13 18  2  0  0  0  0
 14 19  1  0  0  0  0
 15 19  2  0  0  0  0
 16 24  1  0  0  0  0
 16 31  1  0  0  0  0
 16 56  1  0  0  0  0
 20 21  1  0  0  0  0
 20 22  1  0  0  0  0
 20 42  1  0  0  0  0
 20 43  1  0  0  0  0
 21 23  1  0  0  0  0
 21 44  1  0  0  0  0
 21 45  1  0  0  0  0
 22 25  1  0  0  0  0
 22 46  1  0  0  0  0
 23 27  1  0  0  0  0
 23 47  1  0  0  0  0
 23 48  1  0  0  0  0
 24 26  1  0  0  0  0
 24 29  1  0  0  0  0
 24 49  1  0  0  0  0
 25 50  1  0  0  0  0
 25 51  1  0  0  0  0
 26 28  1  0  0  0  0
 26 52  1  0  0  0  0
 26 53  1  0  0  0  0
 27 54  1  0  0  0  0
 27 55  1  0  0  0  0
 28 33  2  0  0  0  0
 28 34  1  0  0  0  0
 30 31  1  0  0  0  0
 30 32  1  0  0  0  0
 30 57  1  0  0  0  0
 30 58  1  0  0  0  0
 32 36  1  0  0  0  0
 32 59  1  0  0  0  0
 32 60  1  0  0  0  0
 33 37  1  0  0  0  0
 33 61  1  0  0  0  0
 34 38  2  0  0  0  0
 34 62  1  0  0  0  0
 35 41  1  0  0  0  0
 35 63  1  0  0  0  0
 36 64  1  0  0  0  0
 36 65  1  0  0  0  0
 37 40  2  0  0  0  0
 37 66  1  0  0  0  0
 38 40  1  0  0  0  0
 38 67  1  0  0  0  0
 40 68  1  0  0  0  0
 41 69  1  0  0  0  0
 41 70  1  0  0  0  0
 41 71  1  0  0  0  0
M  CHG  6  10  -1  12  -1  14  -1  17   1  18   1  19   1
M  END
> <PUBCHEM_COMPOUND_CID>
59287677

> <PUBCHEM_COMPOUND_CANONICALIZED>
1

> <PUBCHEM_CACTVS_COMPLEXITY>
851

> <PUBCHEM_CACTVS_HBOND_ACCEPTOR>
15

> <PUBCHEM_CACTVS_HBOND_DONOR>
1

> <PUBCHEM_CACTVS_ROTATABLE_BOND>
21

> <PUBCHEM_CACTVS_SUBSKEYS>
AAADceB7vAAAAAAAAAAAAAAAAAAAAAAAAAAwAAAAAAAAAAABAAAAHgAUAAAADDzxmAcyCILARACJAiHSGQACAAAgAAAIiIGIAIgbIDKAkTGnIAAklgCciAe66KyOAAAAAAAAAAAAAAAAAAAAAAAAAAAAAA==

> <PUBCHEM_IUPAC_OPENEYE_NAME>
1-(5,6-dinitrooxyhexoxycarbonyloxy)ethyl 2-(4-nitrooxybutanoylamino)-3-phenyl-propanoate

> <PUBCHEM_IUPAC_CAS_NAME>
2-[(4-nitrooxy-1-oxobutyl)amino]-3-phenylpropanoic acid 1-[5,6-dinitrooxyhexoxy(oxo)methoxy]ethyl ester

> <PUBCHEM_IUPAC_NAME_MARKUP>
1-(5,6-dinitrooxyhexoxycarbonyloxy)ethyl 2-(4-nitrooxybutanoylamino)-3-phenylpropanoate

> <PUBCHEM_IUPAC_NAME>
1-(5,6-dinitrooxyhexoxycarbonyloxy)ethyl 2-(4-nitrooxybutanoylamino)-3-phenylpropanoate

> <PUBCHEM_IUPAC_SYSTEMATIC_NAME>
1-(5,6-dinitrooxyhexoxycarbonyloxy)ethyl 2-(4-nitrooxybutanoylamino)-3-phenyl-propanoate

> <PUBCHEM_IUPAC_TRADITIONAL_NAME>
2-(4-nitrooxybutanoylamino)-3-phenyl-propionic acid 1-(5,6-dinitrooxyhexoxycarbonyloxy)ethyl ester

> <PUBCHEM_IUPAC_INCHI>
InChI=1S/C22H30N4O15/c1-16(40-22(29)36-12-6-5-10-18(41-26(34)35)15-38-25(32)33)39-21(28)19(14-17-8-3-2-4-9-17)23-20(27)11-7-13-37-24(30)31/h2-4,8-9,16,18-19H,5-7,10-15H2,1H3,(H,23,27)

> <PUBCHEM_IUPAC_INCHIKEY>
BEYTXIDNBAVCHP-UHFFFAOYSA-N

> <PUBCHEM_XLOGP3_AA>
4.5

> <PUBCHEM_EXACT_MASS>
590.17076626

> <PUBCHEM_MOLECULAR_FORMULA>
C22H30N4O15

> <PUBCHEM_MOLECULAR_WEIGHT>
590.5

> <PUBCHEM_OPENEYE_CAN_SMILES>
CC(OC(=O)C(CC1=CC=CC=C1)NC(=O)CCCO[N+](=O)[O-])OC(=O)OCCCCC(CO[N+](=O)[O-])O[N+](=O)[O-]

> <PUBCHEM_OPENEYE_ISO_SMILES>
CC(OC(=O)C(CC1=CC=CC=C1)NC(=O)CCCO[N+](=O)[O-])OC(=O)OCCCCC(CO[N+](=O)[O-])O[N+](=O)[O-]

> <PUBCHEM_CACTVS_TPSA>
256

> <PUBCHEM_MONOISOTOPIC_WEIGHT>
590.17076626

> <PUBCHEM_TOTAL_CHARGE>
0

> <PUBCHEM_HEAVY_ATOM_COUNT>
41

> <PUBCHEM_ATOM_DEF_STEREO_COUNT>
0

> <PUBCHEM_ATOM_UDEF_STEREO_COUNT>
3

> <PUBCHEM_BOND_DEF_STEREO_COUNT>
0

> <PUBCHEM_BOND_UDEF_STEREO_COUNT>
0

> <PUBCHEM_ISOTOPIC_ATOM_COUNT>
0

> <PUBCHEM_COMPONENT_COUNT>
1

> <PUBCHEM_CACTVS_TAUTO_COUNT>
-1

> <PUBCHEM_COORDINATE_TYPE>
1
5
255

> <PUBCHEM_BONDANNOTATIONS>
22  20  3
24  26  3
28  33  8
28  34  8
33  37  8
34  38  8
35  41  3
37  40  8
38  40  8

$$$$
