 
  -OEChem-10192104112D

 81 84  0     1  0  0  0  0  0999 V2000
    5.6527   -3.1832    0.0000 O   0  0  0  0  0  0  0  0  0  0  0  0
    5.6646    0.1485    0.0000 O   0  0  0  0  0  0  0  0  0  0  0  0
    6.8457    1.8711    0.0000 O   0  0  0  0  0  0  0  0  0  0  0  0
    3.5823   -3.4581    0.0000 O   0  0  0  0  0  0  0  0  0  0  0  0
    4.5856    3.1312    0.0000 O   0  0  0  0  0  0  0  0  0  0  0  0
    6.5662   -4.7765    0.0000 O   0  0  0  0  0  0  0  0  0  0  0  0
   10.0303   -4.7765    0.0000 O   0  0  0  0  0  0  0  0  0  0  0  0
    8.6410    1.4839    0.0000 O   0  0  0  0  0  0  0  0  0  0  0  0
   10.9589    4.0582    0.0000 O   0  0  0  0  0  0  0  0  0  0  0  0
    5.0768   -0.6605    0.0000 N   0  0  3  0  0  0  0  0  0  0  0  0
    8.1057    3.1312    0.0000 N   0  0  0  0  0  0  0  0  0  0  0  0
    8.2983   -4.7765    0.0000 N   0  0  0  0  0  0  0  0  0  0  0  0
    9.7999    2.7710    0.0000 N   0  0  0  0  0  0  0  0  0  0  0  0
    5.4836   -1.5740    0.0000 C   0  0  1  0  0  0  0  0  0  0  0  0
    4.9836   -2.4401    0.0000 C   0  0  1  0  0  0  0  0  0  0  0  0
    6.5662   -2.7765    0.0000 C   0  0  2  0  0  0  0  0  0  0  0  0
    6.4617   -1.7820    0.0000 C   0  4  0  0  0  0  0  0  0  0  0  0
    7.4323   -3.2765    0.0000 C   0  0  3  0  0  0  0  0  0  0  0  0
    3.9890   -2.5446    0.0000 C   0  0  0  0  0  0  0  0  0  0  0  0
    5.8457    1.8711    0.0000 C   0  0  1  0  0  0  0  0  0  0  0  0
    5.5366    2.8221    0.0000 C   0  0  1  0  0  0  0  0  0  0  0  0
    5.2579    1.0621    0.0000 C   0  0  0  0  0  0  0  0  0  0  0  0
    7.1547    2.8221    0.0000 C   0  0  1  0  0  0  0  0  0  0  0  0
    6.3457    3.4099    0.0000 C   0  4  0  0  0  0  0  0  0  0  0  0
    8.2983   -2.7765    0.0000 C   0  0  0  0  0  0  0  0  0  0  0  0
    7.4323   -4.2765    0.0000 C   0  0  0  0  0  0  0  0  0  0  0  0
    4.0823   -0.5560    0.0000 C   0  0  0  0  0  0  0  0  0  0  0  0
    9.1643   -3.2765    0.0000 C   0  0  0  0  0  0  0  0  0  0  0  0
    2.5878   -3.5627    0.0000 C   0  0  0  0  0  0  0  0  0  0  0  0
    4.3777    4.1093    0.0000 C   0  0  0  0  0  0  0  0  0  0  0  0
    9.1643   -4.2765    0.0000 C   0  0  0  0  0  0  0  0  0  0  0  0
    8.3137    4.1093    0.0000 C   0  0  0  0  0  0  0  0  0  0  0  0
   10.0303   -2.7765    0.0000 C   0  0  0  0  0  0  0  0  0  0  0  0
    8.8489    2.4620    0.0000 C   0  0  0  0  0  0  0  0  0  0  0  0
    2.1810   -4.4762    0.0000 C   0  0  0  0  0  0  0  0  0  0  0  0
    2.0000   -2.7536    0.0000 C   0  0  0  0  0  0  0  0  0  0  0  0
    3.4266    4.4183    0.0000 C   0  0  0  0  0  0  0  0  0  0  0  0
    5.1208    4.7784    0.0000 C   0  0  0  0  0  0  0  0  0  0  0  0
    9.2647    4.4183    0.0000 C   0  0  0  0  0  0  0  0  0  0  0  0
   10.0078    3.7492    0.0000 C   0  0  0  0  0  0  0  0  0  0  0  0
    9.4726    5.3965    0.0000 C   0  0  0  0  0  0  0  0  0  0  0  0
    5.8737   -1.0922    0.0000 H   0  0  0  0  0  0  0  0  0  0  0  0
    4.7614   -3.0189    0.0000 H   0  0  0  0  0  0  0  0  0  0  0  0
    6.5218   -3.6253    0.0000 H   0  0  0  0  0  0  0  0  0  0  0  0
    6.9225   -1.3671    0.0000 H   0  0  0  0  0  0  0  0  0  0  0  0
    7.4323   -2.6565    0.0000 H   0  0  0  0  0  0  0  0  0  0  0  0
    6.1271    1.3187    0.0000 H   0  0  0  0  0  0  0  0  0  0  0  0
    4.0323   -1.9261    0.0000 H   0  0  0  0  0  0  0  0  0  0  0  0
    3.3875   -2.3946    0.0000 H   0  0  0  0  0  0  0  0  0  0  0  0
    5.0982    2.3837    0.0000 H   0  0  0  0  0  0  0  0  0  0  0  0
    4.8272    1.5081    0.0000 H   0  0  0  0  0  0  0  0  0  0  0  0
    4.7439    0.7154    0.0000 H   0  0  0  0  0  0  0  0  0  0  0  0
    7.2517    3.4345    0.0000 H   0  0  0  0  0  0  0  0  0  0  0  0
    6.3457    4.0299    0.0000 H   0  0  0  0  0  0  0  0  0  0  0  0
    8.2983   -2.1565    0.0000 H   0  0  0  0  0  0  0  0  0  0  0  0
    4.1471    0.0606    0.0000 H   0  0  0  0  0  0  0  0  0  0  0  0
    3.4657   -0.4912    0.0000 H   0  0  0  0  0  0  0  0  0  0  0  0
    4.0175   -1.1726    0.0000 H   0  0  0  0  0  0  0  0  0  0  0  0
    8.2983   -5.3965    0.0000 H   0  0  0  0  0  0  0  0  0  0  0  0
    2.9522   -4.0643    0.0000 H   0  0  0  0  0  0  0  0  0  0  0  0
    4.9673    3.9177    0.0000 H   0  0  0  0  0  0  0  0  0  0  0  0
    7.8529    4.5242    0.0000 H   0  0  0  0  0  0  0  0  0  0  0  0
   10.3403   -3.3134    0.0000 H   0  0  0  0  0  0  0  0  0  0  0  0
   10.5673   -2.4665    0.0000 H   0  0  0  0  0  0  0  0  0  0  0  0
    9.7203   -2.2395    0.0000 H   0  0  0  0  0  0  0  0  0  0  0  0
    1.6146   -4.2240    0.0000 H   0  0  0  0  0  0  0  0  0  0  0  0
    1.9289   -5.0426    0.0000 H   0  0  0  0  0  0  0  0  0  0  0  0
    2.7474   -4.7284    0.0000 H   0  0  0  0  0  0  0  0  0  0  0  0
    2.5016   -2.3892    0.0000 H   0  0  0  0  0  0  0  0  0  0  0  0
    1.6356   -2.2521    0.0000 H   0  0  0  0  0  0  0  0  0  0  0  0
    1.4984   -3.1181    0.0000 H   0  0  0  0  0  0  0  0  0  0  0  0
    3.6182    5.0080    0.0000 H   0  0  0  0  0  0  0  0  0  0  0  0
    2.8370    4.6099    0.0000 H   0  0  0  0  0  0  0  0  0  0  0  0
    3.2350    3.8287    0.0000 H   0  0  0  0  0  0  0  0  0  0  0  0
    5.5357    4.3177    0.0000 H   0  0  0  0  0  0  0  0  0  0  0  0
    5.5816    5.1933    0.0000 H   0  0  0  0  0  0  0  0  0  0  0  0
    4.7060    5.2392    0.0000 H   0  0  0  0  0  0  0  0  0  0  0  0
   10.2607    2.3562    0.0000 H   0  0  0  0  0  0  0  0  0  0  0  0
   10.0791    5.2676    0.0000 H   0  0  0  0  0  0  0  0  0  0  0  0
    9.6015    6.0029    0.0000 H   0  0  0  0  0  0  0  0  0  0  0  0
    8.8662    5.5254    0.0000 H   0  0  0  0  0  0  0  0  0  0  0  0
  1 15  1  0  0  0  0
  1 16  1  0  0  0  0
  2 10  1  0  0  0  0
  2 22  1  0  0  0  0
  3 20  1  0  0  0  0
  3 23  1  0  0  0  0
  4 19  1  0  0  0  0
  4 29  1  0  0  0  0
 21  5  1  6  0  0  0
  5 30  1  0  0  0  0
  6 26  2  0  0  0  0
  7 31  2  0  0  0  0
  8 34  2  0  0  0  0
  9 40  2  0  0  0  0
 14 10  1  6  0  0  0
 10 27  1  0  0  0  0
 23 11  1  6  0  0  0
 11 32  1  0  0  0  0
 11 34  1  0  0  0  0
 12 26  1  0  0  0  0
 12 31  1  0  0  0  0
 12 59  1  0  0  0  0
 13 34  1  0  0  0  0
 13 40  1  0  0  0  0
 13 78  1  0  0  0  0
 14 15  1  0  0  0  0
 14 17  1  0  0  0  0
 14 42  1  0  0  0  0
 15 19  1  6  0  0  0
 15 43  1  0  0  0  0
 16 17  1  0  0  0  0
 16 18  1  0  0  0  0
 16 44  1  1  0  0  0
 17 45  1  0  0  0  0
 18 25  1  0  0  0  0
 18 26  1  0  0  0  0
 18 46  1  0  0  0  0
 19 48  1  0  0  0  0
 19 49  1  0  0  0  0
 20 21  1  0  0  0  0
 20 22  1  6  0  0  0
 20 47  1  0  0  0  0
 21 24  1  0  0  0  0
 21 50  1  0  0  0  0
 22 51  1  0  0  0  0
 22 52  1  0  0  0  0
 23 24  1  0  0  0  0
 23 53  1  0  0  0  0
 24 54  1  0  0  0  0
 25 28  2  0  0  0  0
 25 55  1  0  0  0  0
 27 56  1  0  0  0  0
 27 57  1  0  0  0  0
 27 58  1  0  0  0  0
 28 31  1  0  0  0  0
 28 33  1  0  0  0  0
 29 35  1  0  0  0  0
 29 36  1  0  0  0  0
 29 60  1  0  0  0  0
 30 37  1  0  0  0  0
 30 38  1  0  0  0  0
 30 61  1  0  0  0  0
 32 39  2  0  0  0  0
 32 62  1  0  0  0  0
 33 63  1  0  0  0  0
 33 64  1  0  0  0  0
 33 65  1  0  0  0  0
 35 66  1  0  0  0  0
 35 67  1  0  0  0  0
 35 68  1  0  0  0  0
 36 69  1  0  0  0  0
 36 70  1  0  0  0  0
 36 71  1  0  0  0  0
 37 72  1  0  0  0  0
 37 73  1  0  0  0  0
 37 74  1  0  0  0  0
 38 75  1  0  0  0  0
 38 76  1  0  0  0  0
 38 77  1  0  0  0  0
 39 40  1  0  0  0  0
 39 41  1  0  0  0  0
 41 79  1  0  0  0  0
 41 80  1  0  0  0  0
 41 81  1  0  0  0  0
M  RAD  2  17   2  24   2
M  END
> <PUBCHEM_COMPOUND_CID>
59099795

> <PUBCHEM_COMPOUND_CANONICALIZED>
1

> <PUBCHEM_CACTVS_COMPLEXITY>
1090

> <PUBCHEM_CACTVS_HBOND_ACCEPTOR>
10

> <PUBCHEM_CACTVS_HBOND_DONOR>
2

> <PUBCHEM_CACTVS_ROTATABLE_BOND>
11

> <PUBCHEM_CACTVS_SUBSKEYS>
AAADcfB7vAAAAAAAAAAAAAAAAAAAASJAAAAgQAAAAAAAAAAAAAAAHgAUAAAADTzhgAYDAAPQBACIAiFWUACAAAAgAAAgCAEIAEiDABYAgQAPAAAP9yKaAcO4+X6cAAAAAAAAAAAAAAAAAAAAAAAAAAAAAA==

> <PUBCHEM_IUPAC_INCHI>
InChI=1S/C28H40N4O9/c1-14(2)37-12-22-19(9-20(40-22)18-8-16(5)25(33)29-27(18)35)31(7)38-13-23-21(39-15(3)4)10-24(41-23)32-11-17(6)26(34)30-28(32)36/h8-11,14-15,18-24H,12-13H2,1-7H3,(H,29,33,35)(H,30,34,36)/t18?,19-,20-,21-,22-,23-,24-/m1/s1

> <PUBCHEM_IUPAC_INCHIKEY>
GNLZNVHHLMKVKP-BXDJSSBPSA-N

> <PUBCHEM_XLOGP3_AA>
1.1

> <PUBCHEM_EXACT_MASS>
576.27952887

> <PUBCHEM_MOLECULAR_FORMULA>
C28H40N4O9

> <PUBCHEM_MOLECULAR_WEIGHT>
576.6

> <PUBCHEM_OPENEYE_CAN_SMILES>
CC1=CC(C(=O)NC1=O)C2[CH]C(C(O2)COC(C)C)N(C)OCC3C([CH]C(O3)N4C=C(C(=O)NC4=O)C)OC(C)C

> <PUBCHEM_OPENEYE_ISO_SMILES>
CC1=CC(C(=O)NC1=O)[C@H]2[CH][C@H]([C@H](O2)COC(C)C)N(C)OC[C@@H]3[C@@H]([CH][C@@H](O3)N4C=C(C(=O)NC4=O)C)OC(C)C

> <PUBCHEM_CACTVS_TPSA>
145

> <PUBCHEM_MONOISOTOPIC_WEIGHT>
576.27952887

> <PUBCHEM_TOTAL_CHARGE>
0

> <PUBCHEM_HEAVY_ATOM_COUNT>
41

> <PUBCHEM_ATOM_DEF_STEREO_COUNT>
6

> <PUBCHEM_ATOM_UDEF_STEREO_COUNT>
1

> <PUBCHEM_BOND_DEF_STEREO_COUNT>
0

> <PUBCHEM_BOND_UDEF_STEREO_COUNT>
0

> <PUBCHEM_ISOTOPIC_ATOM_COUNT>
0

> <PUBCHEM_COMPONENT_COUNT>
1

> <PUBCHEM_CACTVS_TAUTO_COUNT>
-1

> <PUBCHEM_COORDINATE_TYPE>
1
5
255

> <PUBCHEM_BONDANNOTATIONS>
14  10  6
23  11  6
11  32  8
11  34  8
13  34  8
13  40  8
15  19  6
16  44  5
18  25  3
20  22  6
32  39  8
39  40  8
21  5  6

$$$$
