 
  -OEChem-10192104272D

 26 26  0     1  0  0  0  0  0999 V2000
    4.2634    0.5186    0.0000 S   0  0  0  0  0  0  0  0  0  0  0  0
    3.5823   -2.7428    0.0000 P   0  0  3  0  0  0  0  0  0  0  0  0
    4.3913   -2.1550    0.0000 O   0  0  0  0  0  0  0  0  0  0  0  0
    2.7733   -2.1550    0.0000 O   0  0  0  0  0  0  0  0  0  0  0  0
    2.9945   -3.5518    0.0000 O   0  0  0  0  0  0  0  0  0  0  0  0
    5.1769    0.9254    0.0000 O   0  0  0  0  0  0  0  0  0  0  0  0
    3.3498    0.1119    0.0000 O   0  0  0  0  0  0  0  0  0  0  0  0
    4.1701   -3.5518    0.0000 O   0  0  0  0  0  0  0  0  0  0  0  0
    4.0823   -1.2039    0.0000 C   0  0  3  0  0  0  0  0  0  0  0  0
    4.6701   -0.3949    0.0000 C   0  0  0  0  0  0  0  0  0  0  0  0
    3.0823   -1.2039    0.0000 C   0  0  0  0  0  0  0  0  0  0  0  0
    3.8566    1.4322    0.0000 C   0  0  0  0  0  0  0  0  0  0  0  0
    4.4444    2.2412    0.0000 C   0  0  0  0  0  0  0  0  0  0  0  0
    2.0000   -3.4473    0.0000 C   0  0  0  0  0  0  0  0  0  0  0  0
    5.0322    3.0502    0.0000 C   0  0  0  0  0  0  0  0  0  0  0  0
    4.6947   -1.3009    0.0000 H   0  0  0  0  0  0  0  0  0  0  0  0
    5.1008   -0.8409    0.0000 H   0  0  0  0  0  0  0  0  0  0  0  0
    5.1841   -0.0482    0.0000 H   0  0  0  0  0  0  0  0  0  0  0  0
    3.1471   -0.5873    0.0000 H   0  0  0  0  0  0  0  0  0  0  0  0
    2.4759   -1.0750    0.0000 H   0  0  0  0  0  0  0  0  0  0  0  0
    3.4259    1.8782    0.0000 H   0  0  0  0  0  0  0  0  0  0  0  0
    3.3426    1.0855    0.0000 H   0  0  0  0  0  0  0  0  0  0  0  0
    2.0648   -2.8307    0.0000 H   0  0  0  0  0  0  0  0  0  0  0  0
    1.3834   -3.3825    0.0000 H   0  0  0  0  0  0  0  0  0  0  0  0
    1.9352   -4.0639    0.0000 H   0  0  0  0  0  0  0  0  0  0  0  0
    5.3966    3.5518    0.0000 H   0  0  0  0  0  0  0  0  0  0  0  0
  1  6  2  0  0  0  0
  1  7  2  0  0  0  0
  1 10  1  0  0  0  0
  1 12  1  0  0  0  0
  2  3  1  0  0  0  0
  2  4  1  0  0  0  0
  2  5  1  0  0  0  0
  2  8  2  0  0  0  0
  3  9  1  0  0  0  0
  4 11  1  0  0  0  0
  5 14  1  0  0  0  0
  9 10  1  0  0  0  0
  9 11  1  0  0  0  0
  9 16  1  0  0  0  0
 10 17  1  0  0  0  0
 10 18  1  0  0  0  0
 11 19  1  0  0  0  0
 11 20  1  0  0  0  0
 12 13  1  0  0  0  0
 12 21  1  0  0  0  0
 12 22  1  0  0  0  0
 13 15  3  0  0  0  0
 14 23  1  0  0  0  0
 14 24  1  0  0  0  0
 14 25  1  0  0  0  0
 15 26  1  0  0  0  0
M  END
> <PUBCHEM_COMPOUND_CID>
89314144

> <PUBCHEM_COMPOUND_CANONICALIZED>
1

> <PUBCHEM_CACTVS_COMPLEXITY>
413

> <PUBCHEM_CACTVS_HBOND_ACCEPTOR>
6

> <PUBCHEM_CACTVS_HBOND_DONOR>
0

> <PUBCHEM_CACTVS_ROTATABLE_BOND>
4

> <PUBCHEM_CACTVS_SUBSKEYS>
AAADccBgOAJAAAAAAAAAAAAAAAAAASAAAAAAAAAAAAAAAAAAAAAAGgQAACAACBSkwAKCAAAAARpAWAAAAPBAAAAAABAAAAAAAAABAAAgAAAAAAAAAAAgAAAAAAAAAAAAAAAAAAAAAAAAAAAAAAAAAAAAAA==

> <PUBCHEM_IUPAC_OPENEYE_NAME>
2-methoxy-4-(prop-2-ynylsulfonylmethyl)-1,3,2lambda5-dioxaphospholane 2-oxide

> <PUBCHEM_IUPAC_CAS_NAME>
2-methoxy-4-(prop-2-ynylsulfonylmethyl)-1,3,2lambda5-dioxaphospholane 2-oxide

> <PUBCHEM_IUPAC_NAME_MARKUP>
2-methoxy-4-(prop-2-ynylsulfonylmethyl)-1,3,2&lambda;<SUP>5</SUP>-dioxaphospholane 2-oxide

> <PUBCHEM_IUPAC_NAME>
2-methoxy-4-(prop-2-ynylsulfonylmethyl)-1,3,2lambda5-dioxaphospholane 2-oxide

> <PUBCHEM_IUPAC_SYSTEMATIC_NAME>
2-methoxy-4-(prop-2-ynylsulfonylmethyl)-1,3,2lambda5-dioxaphospholane 2-oxide

> <PUBCHEM_IUPAC_TRADITIONAL_NAME>
2-methoxy-4-(propargylsulfonylmethyl)-1,3,2lambda5-dioxaphospholane 2-oxide

> <PUBCHEM_IUPAC_INCHI>
InChI=1S/C7H11O6PS/c1-3-4-15(9,10)6-7-5-12-14(8,11-2)13-7/h1,7H,4-6H2,2H3

> <PUBCHEM_IUPAC_INCHIKEY>
DQQBJUDRSOPIHQ-UHFFFAOYSA-N

> <PUBCHEM_XLOGP3_AA>
-1.2

> <PUBCHEM_EXACT_MASS>
254.00139624

> <PUBCHEM_MOLECULAR_FORMULA>
C7H11O6PS

> <PUBCHEM_MOLECULAR_WEIGHT>
254.20

> <PUBCHEM_OPENEYE_CAN_SMILES>
COP1(=O)OCC(O1)CS(=O)(=O)CC#C

> <PUBCHEM_OPENEYE_ISO_SMILES>
COP1(=O)OCC(O1)CS(=O)(=O)CC#C

> <PUBCHEM_CACTVS_TPSA>
87.3

> <PUBCHEM_MONOISOTOPIC_WEIGHT>
254.00139624

> <PUBCHEM_TOTAL_CHARGE>
0

> <PUBCHEM_HEAVY_ATOM_COUNT>
15

> <PUBCHEM_ATOM_DEF_STEREO_COUNT>
0

> <PUBCHEM_ATOM_UDEF_STEREO_COUNT>
2

> <PUBCHEM_BOND_DEF_STEREO_COUNT>
0

> <PUBCHEM_BOND_UDEF_STEREO_COUNT>
0

> <PUBCHEM_ISOTOPIC_ATOM_COUNT>
0

> <PUBCHEM_COMPONENT_COUNT>
1

> <PUBCHEM_CACTVS_TAUTO_COUNT>
-1

> <PUBCHEM_COORDINATE_TYPE>
1
5
255

> <PUBCHEM_BONDANNOTATIONS>
2  5  3
9  10  3

$$$$
