 
  -OEChem-10192104222D

 81 84  0     1  0  0  0  0  0999 V2000
   10.3312   -0.0381    0.0000 O   0  0  0  0  0  0  0  0  0  0  0  0
    9.4651    1.4619    0.0000 O   0  0  0  0  0  0  0  0  0  0  0  0
    8.5991    2.9619    0.0000 O   0  0  0  0  0  0  0  0  0  0  0  0
    7.7331    1.4619    0.0000 O   0  0  0  0  0  0  0  0  0  0  0  0
    6.8671   -0.0381    0.0000 O   0  0  0  0  0  0  0  0  0  0  0  0
    9.0457   -1.5703    0.0000 O   0  0  0  0  0  0  0  0  0  0  0  0
   12.3008   -0.3854    0.0000 O   0  0  0  0  0  0  0  0  0  0  0  0
    9.7296   -3.4496    0.0000 O   0  0  0  0  0  0  0  0  0  0  0  0
   12.9848   -2.2648    0.0000 O   0  0  0  0  0  0  0  0  0  0  0  0
   11.6992   -3.7969    0.0000 O   0  0  0  0  0  0  0  0  0  0  0  0
    5.1350   -0.0381    0.0000 O   0  0  0  0  0  0  0  0  0  0  0  0
   12.0632    0.9619    0.0000 O   0  0  0  0  0  0  0  0  0  0  0  0
   12.0632    2.9619    0.0000 O   0  0  0  0  0  0  0  0  0  0  0  0
   10.3312    3.9619    0.0000 O   0  0  0  0  0  0  0  0  0  0  0  0
    6.8671    3.9619    0.0000 O   0  0  0  0  0  0  0  0  0  0  0  0
    5.1350    2.9619    0.0000 O   0  0  0  0  0  0  0  0  0  0  0  0
    5.1350    0.9619    0.0000 O   0  0  0  0  0  0  0  0  0  0  0  0
    6.8671   -2.0381    0.0000 O   0  0  0  0  0  0  0  0  0  0  0  0
    5.1350   -3.0381    0.0000 O   0  0  0  0  0  0  0  0  0  0  0  0
    3.4030   -2.0381    0.0000 O   0  0  0  0  0  0  0  0  0  0  0  0
    2.5369   -0.5381    0.0000 O   0  0  0  0  0  0  0  0  0  0  0  0
   10.6732   -0.9778    0.0000 C   0  0  0  0  0  0  0  0  0  0  0  0
   10.0304   -1.7439    0.0000 C   0  0  3  0  0  0  0  0  0  0  0  0
   11.6580   -1.1515    0.0000 C   0  0  3  0  0  0  0  0  0  0  0  0
   10.3724   -2.6836    0.0000 C   0  0  3  0  0  0  0  0  0  0  0  0
   12.0000   -2.0912    0.0000 C   0  0  3  0  0  0  0  0  0  0  0  0
   11.3572   -2.8572    0.0000 C   0  0  0  0  0  0  0  0  0  0  0  0
   10.3312    0.9619    0.0000 C   0  0  3  0  0  0  0  0  0  0  0  0
   11.1972    1.4619    0.0000 C   0  0  3  0  0  0  0  0  0  0  0  0
   11.1972    2.4619    0.0000 C   0  0  3  0  0  0  0  0  0  0  0  0
    9.4651    2.4619    0.0000 C   0  0  3  0  0  0  0  0  0  0  0  0
   10.3312    2.9619    0.0000 C   0  0  3  0  0  0  0  0  0  0  0  0
    7.7331    2.4619    0.0000 C   0  0  3  0  0  0  0  0  0  0  0  0
    6.8671    2.9619    0.0000 C   0  0  3  0  0  0  0  0  0  0  0  0
    6.0010    2.4619    0.0000 C   0  0  3  0  0  0  0  0  0  0  0  0
    6.0010    1.4619    0.0000 C   0  0  3  0  0  0  0  0  0  0  0  0
    6.8671    0.9619    0.0000 C   0  0  3  0  0  0  0  0  0  0  0  0
    6.0010   -0.5381    0.0000 C   0  0  3  0  0  0  0  0  0  0  0  0
    6.0010   -1.5381    0.0000 C   0  0  3  0  0  0  0  0  0  0  0  0
    5.1350   -2.0381    0.0000 C   0  0  3  0  0  0  0  0  0  0  0  0
    4.2690   -1.5381    0.0000 C   0  0  3  0  0  0  0  0  0  0  0  0
    4.2690   -0.5381    0.0000 C   0  0  3  0  0  0  0  0  0  0  0  0
    3.4030   -0.0381    0.0000 C   0  0  0  0  0  0  0  0  0  0  0  0
   10.0626   -0.8702    0.0000 H   0  0  0  0  0  0  0  0  0  0  0  0
   10.6410   -1.8515    0.0000 H   0  0  0  0  0  0  0  0  0  0  0  0
   11.4459   -0.5689    0.0000 H   0  0  0  0  0  0  0  0  0  0  0  0
   10.5845   -3.2662    0.0000 H   0  0  0  0  0  0  0  0  0  0  0  0
   12.3985   -1.6162    0.0000 H   0  0  0  0  0  0  0  0  0  0  0  0
   11.9678   -2.9649    0.0000 H   0  0  0  0  0  0  0  0  0  0  0  0
    9.7942    0.6519    0.0000 H   0  0  0  0  0  0  0  0  0  0  0  0
   11.7341    1.7719    0.0000 H   0  0  0  0  0  0  0  0  0  0  0  0
   11.1972    3.0819    0.0000 H   0  0  0  0  0  0  0  0  0  0  0  0
    9.4651    3.0819    0.0000 H   0  0  0  0  0  0  0  0  0  0  0  0
   10.8681    3.2719    0.0000 H   0  0  0  0  0  0  0  0  0  0  0  0
    7.7331    3.0819    0.0000 H   0  0  0  0  0  0  0  0  0  0  0  0
    6.3301    3.2719    0.0000 H   0  0  0  0  0  0  0  0  0  0  0  0
    6.5380    2.1519    0.0000 H   0  0  0  0  0  0  0  0  0  0  0  0
    5.4641    1.7719    0.0000 H   0  0  0  0  0  0  0  0  0  0  0  0
    6.3301    0.6519    0.0000 H   0  0  0  0  0  0  0  0  0  0  0  0
    6.5380   -0.8481    0.0000 H   0  0  0  0  0  0  0  0  0  0  0  0
    6.0010   -2.1581    0.0000 H   0  0  0  0  0  0  0  0  0  0  0  0
    4.5981   -2.3481    0.0000 H   0  0  0  0  0  0  0  0  0  0  0  0
    4.2690   -2.1581    0.0000 H   0  0  0  0  0  0  0  0  0  0  0  0
    4.2690    0.0819    0.0000 H   0  0  0  0  0  0  0  0  0  0  0  0
    8.6471   -2.0452    0.0000 H   0  0  0  0  0  0  0  0  0  0  0  0
   12.9114   -0.4931    0.0000 H   0  0  0  0  0  0  0  0  0  0  0  0
    9.9417   -4.0322    0.0000 H   0  0  0  0  0  0  0  0  0  0  0  0
   13.1969   -2.8474    0.0000 H   0  0  0  0  0  0  0  0  0  0  0  0
   11.3007   -4.2719    0.0000 H   0  0  0  0  0  0  0  0  0  0  0  0
   12.0632    0.3419    0.0000 H   0  0  0  0  0  0  0  0  0  0  0  0
   12.0632    3.5819    0.0000 H   0  0  0  0  0  0  0  0  0  0  0  0
   10.8681    4.2719    0.0000 H   0  0  0  0  0  0  0  0  0  0  0  0
    3.8015    0.4368    0.0000 H   0  0  0  0  0  0  0  0  0  0  0  0
    3.0044    0.4368    0.0000 H   0  0  0  0  0  0  0  0  0  0  0  0
    7.4040    4.2719    0.0000 H   0  0  0  0  0  0  0  0  0  0  0  0
    5.1350    3.5819    0.0000 H   0  0  0  0  0  0  0  0  0  0  0  0
    4.5981    1.2719    0.0000 H   0  0  0  0  0  0  0  0  0  0  0  0
    7.4040   -1.7281    0.0000 H   0  0  0  0  0  0  0  0  0  0  0  0
    5.6720   -3.3481    0.0000 H   0  0  0  0  0  0  0  0  0  0  0  0
    3.4030   -2.6581    0.0000 H   0  0  0  0  0  0  0  0  0  0  0  0
    2.0000   -0.2281    0.0000 H   0  0  0  0  0  0  0  0  0  0  0  0
  1 22  1  0  0  0  0
  1 28  1  0  0  0  0
  2 28  1  0  0  0  0
  2 31  1  0  0  0  0
  3 31  1  0  0  0  0
  3 33  1  0  0  0  0
  4 33  1  0  0  0  0
  4 37  1  0  0  0  0
  5 37  1  0  0  0  0
  5 38  1  0  0  0  0
  6 23  1  0  0  0  0
  6 65  1  0  0  0  0
  7 24  1  0  0  0  0
  7 66  1  0  0  0  0
  8 25  1  0  0  0  0
  8 67  1  0  0  0  0
  9 26  1  0  0  0  0
  9 68  1  0  0  0  0
 10 27  1  0  0  0  0
 10 69  1  0  0  0  0
 11 38  1  0  0  0  0
 11 42  1  0  0  0  0
 12 29  1  0  0  0  0
 12 70  1  0  0  0  0
 13 30  1  0  0  0  0
 13 71  1  0  0  0  0
 14 32  1  0  0  0  0
 14 72  1  0  0  0  0
 15 34  1  0  0  0  0
 15 75  1  0  0  0  0
 16 35  1  0  0  0  0
 16 76  1  0  0  0  0
 17 36  1  0  0  0  0
 17 77  1  0  0  0  0
 18 39  1  0  0  0  0
 18 78  1  0  0  0  0
 19 40  1  0  0  0  0
 19 79  1  0  0  0  0
 20 41  1  0  0  0  0
 20 80  1  0  0  0  0
 21 43  1  0  0  0  0
 21 81  1  0  0  0  0
 22 23  1  0  0  0  0
 22 24  1  0  0  0  0
 22 44  1  0  0  0  0
 23 25  1  0  0  0  0
 23 45  1  0  0  0  0
 24 26  1  0  0  0  0
 24 46  1  0  0  0  0
 25 27  1  0  0  0  0
 25 47  1  0  0  0  0
 26 27  1  0  0  0  0
 26 48  1  0  0  0  0
 27 49  1  0  0  0  0
 28 29  1  0  0  0  0
 28 50  1  0  0  0  0
 29 30  1  0  0  0  0
 29 51  1  0  0  0  0
 30 32  1  0  0  0  0
 30 52  1  0  0  0  0
 31 32  1  0  0  0  0
 31 53  1  0  0  0  0
 32 54  1  0  0  0  0
 33 34  1  0  0  0  0
 33 55  1  0  0  0  0
 34 35  1  0  0  0  0
 34 56  1  0  0  0  0
 35 36  1  0  0  0  0
 35 57  1  0  0  0  0
 36 37  1  0  0  0  0
 36 58  1  0  0  0  0
 37 59  1  0  0  0  0
 38 39  1  0  0  0  0
 38 60  1  0  0  0  0
 39 40  1  0  0  0  0
 39 61  1  0  0  0  0
 40 41  1  0  0  0  0
 40 62  1  0  0  0  0
 41 42  1  0  0  0  0
 41 63  1  0  0  0  0
 42 43  1  0  0  0  0
 42 64  1  0  0  0  0
 43 73  1  0  0  0  0
 43 74  1  0  0  0  0
M  END
> <PUBCHEM_COMPOUND_CID>
54564545

> <PUBCHEM_COMPOUND_CANONICALIZED>
1

> <PUBCHEM_CACTVS_COMPLEXITY>
885

> <PUBCHEM_CACTVS_HBOND_ACCEPTOR>
21

> <PUBCHEM_CACTVS_HBOND_DONOR>
15

> <PUBCHEM_CACTVS_ROTATABLE_BOND>
7

> <PUBCHEM_CACTVS_SUBSKEYS>
AAADcfB4PgAAAAAAAAAAAAAAAAAAAAAAAAA0SJEAAAAAAAAAAAAAGgAACAAACBSwgAMACAAABgAAAAAAAAAAAAAAAAAAAAAAAAAREAIAAAAiQAAFAAAHAAHAYAwAAAAAAAAAAAACAAAQAACAAAAAAAAAAA==

> <PUBCHEM_IUPAC_OPENEYE_NAME>
6-[3,4,5-trihydroxy-6-[3,4,5-trihydroxy-6-[3,4,5-trihydroxy-6-(hydroxymethyl)tetrahydropyran-2-yl]oxy-tetrahydropyran-2-yl]oxy-tetrahydropyran-2-yl]oxycyclohexane-1,2,3,4,5-pentol

> <PUBCHEM_IUPAC_CAS_NAME>
6-[[3,4,5-trihydroxy-6-[[3,4,5-trihydroxy-6-[[3,4,5-trihydroxy-6-(hydroxymethyl)-2-oxanyl]oxy]-2-oxanyl]oxy]-2-oxanyl]oxy]cyclohexane-1,2,3,4,5-pentol

> <PUBCHEM_IUPAC_NAME_MARKUP>
6-[3,4,5-trihydroxy-6-[3,4,5-trihydroxy-6-[3,4,5-trihydroxy-6-(hydroxymethyl)oxan-2-yl]oxyoxan-2-yl]oxyoxan-2-yl]oxycyclohexane-1,2,3,4,5-pentol

> <PUBCHEM_IUPAC_NAME>
6-[3,4,5-trihydroxy-6-[3,4,5-trihydroxy-6-[3,4,5-trihydroxy-6-(hydroxymethyl)oxan-2-yl]oxyoxan-2-yl]oxyoxan-2-yl]oxycyclohexane-1,2,3,4,5-pentol

> <PUBCHEM_IUPAC_SYSTEMATIC_NAME>
6-[6-[6-[6-(hydroxymethyl)-3,4,5-tris(oxidanyl)oxan-2-yl]oxy-3,4,5-tris(oxidanyl)oxan-2-yl]oxy-3,4,5-tris(oxidanyl)oxan-2-yl]oxycyclohexane-1,2,3,4,5-pentol

> <PUBCHEM_IUPAC_TRADITIONAL_NAME>
6-[3,4,5-trihydroxy-6-[3,4,5-trihydroxy-6-(3,4,5-trihydroxy-6-methylol-tetrahydropyran-2-yl)oxy-tetrahydropyran-2-yl]oxy-tetrahydropyran-2-yl]oxycyclohexane-1,2,3,4,5-pentol

> <PUBCHEM_IUPAC_INCHI>
InChI=1S/C22H38O21/c23-1-2-3(24)4(25)12(33)18(38-2)40-20-15(36)9(30)16(37)22(42-20)43-21-14(35)8(29)13(34)19(41-21)39-17-10(31)6(27)5(26)7(28)11(17)32/h2-37H,1H2

> <PUBCHEM_IUPAC_INCHIKEY>
ZSXADFPNJYAFCD-UHFFFAOYSA-N

> <PUBCHEM_XLOGP3_AA>
-9.4

> <PUBCHEM_EXACT_MASS>
638.19055822

> <PUBCHEM_MOLECULAR_FORMULA>
C22H38O21

> <PUBCHEM_MOLECULAR_WEIGHT>
638.5

> <PUBCHEM_OPENEYE_CAN_SMILES>
C(C1C(C(C(C(O1)OC2C(C(C(C(O2)OC3C(C(C(C(O3)OC4C(C(C(C(C4O)O)O)O)O)O)O)O)O)O)O)O)O)O)O

> <PUBCHEM_OPENEYE_ISO_SMILES>
C(C1C(C(C(C(O1)OC2C(C(C(C(O2)OC3C(C(C(C(O3)OC4C(C(C(C(C4O)O)O)O)O)O)O)O)O)O)O)O)O)O)O

> <PUBCHEM_CACTVS_TPSA>
359

> <PUBCHEM_MONOISOTOPIC_WEIGHT>
638.19055822

> <PUBCHEM_TOTAL_CHARGE>
0

> <PUBCHEM_HEAVY_ATOM_COUNT>
43

> <PUBCHEM_ATOM_DEF_STEREO_COUNT>
0

> <PUBCHEM_ATOM_UDEF_STEREO_COUNT>
19

> <PUBCHEM_BOND_DEF_STEREO_COUNT>
0

> <PUBCHEM_BOND_UDEF_STEREO_COUNT>
0

> <PUBCHEM_ISOTOPIC_ATOM_COUNT>
0

> <PUBCHEM_COMPONENT_COUNT>
1

> <PUBCHEM_CACTVS_TAUTO_COUNT>
-1

> <PUBCHEM_COORDINATE_TYPE>
1
5
255

> <PUBCHEM_BONDANNOTATIONS>
28  1  3
29  12  3
30  13  3
32  14  3
34  15  3
35  16  3
36  17  3
39  18  3
40  19  3
41  20  3
31  3  3
33  3  3
42  43  3
37  5  3
38  5  3
23  6  3
24  7  3
25  8  3
26  9  3

$$$$
