 
  -OEChem-10192104042D

 86 87  0     1  0  0  0  0  0999 V2000
    7.1962   -3.5600    0.0000 S   0  0  0  0  0  0  0  0  0  0  0  0
    5.4641   -3.5600    0.0000 O   0  0  0  0  0  0  0  0  0  0  0  0
    5.4641   -6.5600    0.0000 O   0  0  0  0  0  0  0  0  0  0  0  0
    7.1962   -5.5600    0.0000 O   0  0  0  0  0  0  0  0  0  0  0  0
    3.7320   -5.5600    0.0000 O   0  0  0  0  0  0  0  0  0  0  0  0
    6.3301   -1.0600    0.0000 O   0  0  0  0  0  0  0  0  0  0  0  0
    3.7320   -2.5600    0.0000 O   0  0  0  0  0  0  0  0  0  0  0  0
    7.1962    0.4400    0.0000 O   0  0  0  0  0  0  0  0  0  0  0  0
    4.5981   -2.0600    0.0000 O   0  0  0  0  0  0  0  0  0  0  0  0
    8.9282   -0.5600    0.0000 O   0  0  0  0  0  0  0  0  0  0  0  0
    3.7320   -6.5600    0.0000 O   0  0  0  0  0  0  0  0  0  0  0  0
    8.0622   -4.0600    0.0000 O   0  0  0  0  0  0  0  0  0  0  0  0
    2.8660   -4.0600    0.0000 O   0  0  0  0  0  0  0  0  0  0  0  0
    2.0000   -2.5600    0.0000 O   0  0  0  0  0  0  0  0  0  0  0  0
    5.4641    2.4400    0.0000 O   0  0  0  0  0  0  0  0  0  0  0  0
    5.4641   -0.5600    0.0000 O   0  0  0  0  0  0  0  0  0  0  0  0
    4.5981    4.9400    0.0000 O   0  0  0  0  0  0  0  0  0  0  0  0
    5.4641   -5.5600    0.0000 C   0  0  2  0  0  0  0  0  0  0  0  0
    6.3301   -5.0600    0.0000 C   0  0  2  0  0  0  0  0  0  0  0  0
    4.5981   -5.0600    0.0000 C   0  0  2  0  0  0  0  0  0  0  0  0
    6.3301   -4.0600    0.0000 C   0  0  2  0  0  0  0  0  0  0  0  0
    4.5981   -4.0600    0.0000 C   0  0  1  0  0  0  0  0  0  0  0  0
    7.1962   -2.5600    0.0000 C   0  0  1  0  0  0  0  0  0  0  0  0
    6.3301   -2.0600    0.0000 C   0  0  1  0  0  0  0  0  0  0  0  0
    3.7320   -3.5600    0.0000 C   0  0  0  0  0  0  0  0  0  0  0  0
    8.0622   -2.0600    0.0000 C   0  0  0  0  0  0  0  0  0  0  0  0
    7.1962   -0.5600    0.0000 C   0  0  2  0  0  0  0  0  0  0  0  0
    8.0622   -1.0600    0.0000 C   0  0  0  0  0  0  0  0  0  0  0  0
    5.4641   -2.5600    0.0000 C   0  0  0  0  0  0  0  0  0  0  0  0
    4.5981   -7.0600    0.0000 C   0  0  0  0  0  0  0  0  0  0  0  0
    8.0622   -5.0600    0.0000 C   0  0  0  0  0  0  0  0  0  0  0  0
    2.8660   -5.0600    0.0000 C   0  0  0  0  0  0  0  0  0  0  0  0
    4.5981   -8.0600    0.0000 C   0  0  0  0  0  0  0  0  0  0  0  0
    8.9282   -5.5600    0.0000 C   0  0  0  0  0  0  0  0  0  0  0  0
    2.0000   -5.5600    0.0000 C   0  0  0  0  0  0  0  0  0  0  0  0
    2.8660   -2.0600    0.0000 C   0  0  0  0  0  0  0  0  0  0  0  0
    6.3301    0.9400    0.0000 C   0  0  0  0  0  0  0  0  0  0  0  0
    4.5981   -1.0600    0.0000 C   0  0  0  0  0  0  0  0  0  0  0  0
    6.3301    1.9400    0.0000 C   0  0  0  0  0  0  0  0  0  0  0  0
    2.8660   -1.0600    0.0000 C   0  0  0  0  0  0  0  0  0  0  0  0
    3.7320   -0.5600    0.0000 C   0  0  0  0  0  0  0  0  0  0  0  0
    5.4641    3.4400    0.0000 C   0  0  0  0  0  0  0  0  0  0  0  0
    4.5981    3.9400    0.0000 C   0  0  0  0  0  0  0  0  0  0  0  0
    3.7320    5.4400    0.0000 C   0  0  0  0  0  0  0  0  0  0  0  0
    3.7320    6.4400    0.0000 C   0  0  0  0  0  0  0  0  0  0  0  0
    3.7320    7.4400    0.0000 C   0  0  0  0  0  0  0  0  0  0  0  0
    4.9272   -5.8700    0.0000 H   0  0  0  0  0  0  0  0  0  0  0  0
    6.3301   -5.6800    0.0000 H   0  0  0  0  0  0  0  0  0  0  0  0
    4.5981   -5.6800    0.0000 H   0  0  0  0  0  0  0  0  0  0  0  0
    6.3301   -3.4400    0.0000 H   0  0  0  0  0  0  0  0  0  0  0  0
    4.5981   -3.4400    0.0000 H   0  0  0  0  0  0  0  0  0  0  0  0
    7.7331   -2.8700    0.0000 H   0  0  0  0  0  0  0  0  0  0  0  0
    5.7932   -1.7500    0.0000 H   0  0  0  0  0  0  0  0  0  0  0  0
    3.1215   -3.4523    0.0000 H   0  0  0  0  0  0  0  0  0  0  0  0
    3.5200   -4.1426    0.0000 H   0  0  0  0  0  0  0  0  0  0  0  0
    8.2742   -2.6426    0.0000 H   0  0  0  0  0  0  0  0  0  0  0  0
    8.6728   -1.9523    0.0000 H   0  0  0  0  0  0  0  0  0  0  0  0
    7.7331   -0.2500    0.0000 H   0  0  0  0  0  0  0  0  0  0  0  0
    5.0656   -3.0349    0.0000 H   0  0  0  0  0  0  0  0  0  0  0  0
    5.8626   -3.0349    0.0000 H   0  0  0  0  0  0  0  0  0  0  0  0
    3.9781   -8.0600    0.0000 H   0  0  0  0  0  0  0  0  0  0  0  0
    4.5981   -8.6800    0.0000 H   0  0  0  0  0  0  0  0  0  0  0  0
    5.2181   -8.0600    0.0000 H   0  0  0  0  0  0  0  0  0  0  0  0
    8.6182   -6.0969    0.0000 H   0  0  0  0  0  0  0  0  0  0  0  0
    9.4651   -5.8700    0.0000 H   0  0  0  0  0  0  0  0  0  0  0  0
    9.2382   -5.0231    0.0000 H   0  0  0  0  0  0  0  0  0  0  0  0
    1.6900   -5.0231    0.0000 H   0  0  0  0  0  0  0  0  0  0  0  0
    1.4631   -5.8700    0.0000 H   0  0  0  0  0  0  0  0  0  0  0  0
    2.3100   -6.0969    0.0000 H   0  0  0  0  0  0  0  0  0  0  0  0
    5.7196    1.0477    0.0000 H   0  0  0  0  0  0  0  0  0  0  0  0
    6.1181    0.3574    0.0000 H   0  0  0  0  0  0  0  0  0  0  0  0
    6.9407    1.8323    0.0000 H   0  0  0  0  0  0  0  0  0  0  0  0
    6.5422    2.5226    0.0000 H   0  0  0  0  0  0  0  0  0  0  0  0
    3.4860   -1.0600    0.0000 H   0  0  0  0  0  0  0  0  0  0  0  0
    2.8660   -0.4400    0.0000 H   0  0  0  0  0  0  0  0  0  0  0  0
    2.2460   -1.0600    0.0000 H   0  0  0  0  0  0  0  0  0  0  0  0
    4.0420   -0.0231    0.0000 H   0  0  0  0  0  0  0  0  0  0  0  0
    3.1951   -0.2500    0.0000 H   0  0  0  0  0  0  0  0  0  0  0  0
    3.4220   -1.0969    0.0000 H   0  0  0  0  0  0  0  0  0  0  0  0
    6.0747    3.3323    0.0000 H   0  0  0  0  0  0  0  0  0  0  0  0
    5.6762    4.0226    0.0000 H   0  0  0  0  0  0  0  0  0  0  0  0
    3.9875    4.0477    0.0000 H   0  0  0  0  0  0  0  0  0  0  0  0
    4.3860    3.3574    0.0000 H   0  0  0  0  0  0  0  0  0  0  0  0
    3.1215    5.5477    0.0000 H   0  0  0  0  0  0  0  0  0  0  0  0
    3.5200    4.8574    0.0000 H   0  0  0  0  0  0  0  0  0  0  0  0
    3.7320    8.0600    0.0000 H   0  0  0  0  0  0  0  0  0  0  0  0
 21  1  1  1  0  0  0
 23  1  1  1  0  0  0
  2 21  1  0  0  0  0
  2 22  1  0  0  0  0
 18  3  1  1  0  0  0
  3 30  1  0  0  0  0
 19  4  1  6  0  0  0
  4 31  1  0  0  0  0
 20  5  1  1  0  0  0
  5 32  1  0  0  0  0
  6 24  1  0  0  0  0
  6 27  1  0  0  0  0
  7 25  1  0  0  0  0
  7 36  1  0  0  0  0
 27  8  1  6  0  0  0
  8 37  1  0  0  0  0
  9 29  1  0  0  0  0
  9 38  1  0  0  0  0
 10 28  2  0  0  0  0
 11 30  2  0  0  0  0
 12 31  2  0  0  0  0
 13 32  2  0  0  0  0
 14 36  2  0  0  0  0
 15 39  1  0  0  0  0
 15 42  1  0  0  0  0
 16 38  2  0  0  0  0
 17 43  1  0  0  0  0
 17 44  1  0  0  0  0
 18 19  1  0  0  0  0
 18 20  1  0  0  0  0
 18 47  1  0  0  0  0
 19 21  1  0  0  0  0
 19 48  1  0  0  0  0
 20 22  1  0  0  0  0
 20 49  1  0  0  0  0
 21 50  1  0  0  0  0
 22 25  1  1  0  0  0
 22 51  1  0  0  0  0
 23 24  1  0  0  0  0
 23 26  1  0  0  0  0
 23 52  1  0  0  0  0
 24 29  1  1  0  0  0
 24 53  1  0  0  0  0
 25 54  1  0  0  0  0
 25 55  1  0  0  0  0
 26 28  1  0  0  0  0
 26 56  1  0  0  0  0
 26 57  1  0  0  0  0
 27 28  1  0  0  0  0
 27 58  1  0  0  0  0
 29 59  1  0  0  0  0
 29 60  1  0  0  0  0
 30 33  1  0  0  0  0
 31 34  1  0  0  0  0
 32 35  1  0  0  0  0
 33 61  1  0  0  0  0
 33 62  1  0  0  0  0
 33 63  1  0  0  0  0
 34 64  1  0  0  0  0
 34 65  1  0  0  0  0
 34 66  1  0  0  0  0
 35 67  1  0  0  0  0
 35 68  1  0  0  0  0
 35 69  1  0  0  0  0
 36 40  1  0  0  0  0
 37 39  1  0  0  0  0
 37 70  1  0  0  0  0
 37 71  1  0  0  0  0
 38 41  1  0  0  0  0
 39 72  1  0  0  0  0
 39 73  1  0  0  0  0
 40 74  1  0  0  0  0
 40 75  1  0  0  0  0
 40 76  1  0  0  0  0
 41 77  1  0  0  0  0
 41 78  1  0  0  0  0
 41 79  1  0  0  0  0
 42 43  1  0  0  0  0
 42 80  1  0  0  0  0
 42 81  1  0  0  0  0
 43 82  1  0  0  0  0
 43 83  1  0  0  0  0
 44 45  1  0  0  0  0
 44 84  1  0  0  0  0
 44 85  1  0  0  0  0
 45 46  3  0  0  0  0
 46 86  1  0  0  0  0
M  END
> <PUBCHEM_COMPOUND_CID>
72197000

> <PUBCHEM_COMPOUND_CANONICALIZED>
1

> <PUBCHEM_CACTVS_COMPLEXITY>
1120

> <PUBCHEM_CACTVS_HBOND_ACCEPTOR>
17

> <PUBCHEM_CACTVS_HBOND_DONOR>
0

> <PUBCHEM_CACTVS_ROTATABLE_BOND>
22

> <PUBCHEM_CACTVS_SUBSKEYS>
AAADcfB4PgBAAAAAAAAAAAAAAAAAAAAAAAAkSAAAAAAAAAAAAAAAGgQAAAAACBS0wAOCCAAABAhIGICQCAIAAAAAABAAAAFAAAARABIgAAQiAAAFAAAmAAHKZAwAAAAAAAAAAAAAAAAAAAAAAAAAAAAAAA==

> <PUBCHEM_IUPAC_OPENEYE_NAME>
[(2R,3R,6S)-5-oxo-6-[2-(2-prop-2-ynoxyethoxy)ethoxy]-3-[(2S,3R,4S,5S,6R)-3,4,5-triacetoxy-6-(acetoxymethyl)tetrahydropyran-2-yl]sulfanyl-tetrahydropyran-2-yl]methyl acetate

> <PUBCHEM_IUPAC_CAS_NAME>
acetic acid [(2R,3R,6S)-5-oxo-6-[2-(2-prop-2-ynoxyethoxy)ethoxy]-3-[[(2S,3R,4S,5S,6R)-3,4,5-triacetyloxy-6-(acetyloxymethyl)-2-oxanyl]thio]-2-oxanyl]methyl ester

> <PUBCHEM_IUPAC_NAME_MARKUP>
[(2<I>R</I>,3<I>R</I>,6<I>S</I>)-5-oxo-6-[2-(2-prop-2-ynoxyethoxy)ethoxy]-3-[(2<I>S</I>,3<I>R</I>,4<I>S</I>,5<I>S</I>,6<I>R</I>)-3,4,5-triacetyloxy-6-(acetyloxymethyl)oxan-2-yl]sulfanyloxan-2-yl]methyl acetate

> <PUBCHEM_IUPAC_NAME>
[(2R,3R,6S)-5-oxo-6-[2-(2-prop-2-ynoxyethoxy)ethoxy]-3-[(2S,3R,4S,5S,6R)-3,4,5-triacetyloxy-6-(acetyloxymethyl)oxan-2-yl]sulfanyloxan-2-yl]methyl acetate

> <PUBCHEM_IUPAC_SYSTEMATIC_NAME>
[(2R,3R,6S)-5-oxidanylidene-6-[2-(2-prop-2-ynoxyethoxy)ethoxy]-3-[(2S,3R,4S,5S,6R)-3,4,5-triacetyloxy-6-(acetyloxymethyl)oxan-2-yl]sulfanyl-oxan-2-yl]methyl ethanoate

> <PUBCHEM_IUPAC_TRADITIONAL_NAME>
acetic acid [(2R,3R,6S)-5-keto-6-[2-(2-propargyloxyethoxy)ethoxy]-3-[[(2S,3R,4S,5S,6R)-3,4,5-triacetoxy-6-(acetoxymethyl)tetrahydropyran-2-yl]thio]tetrahydropyran-2-yl]methyl ester

> <PUBCHEM_IUPAC_INCHI>
InChI=1S/C29H40O16S/c1-7-8-36-9-10-37-11-12-38-28-21(35)13-24(22(44-28)14-39-16(2)30)46-29-27(43-20(6)34)26(42-19(5)33)25(41-18(4)32)23(45-29)15-40-17(3)31/h1,22-29H,8-15H2,2-6H3/t22-,23-,24-,25+,26+,27-,28+,29+/m1/s1

> <PUBCHEM_IUPAC_INCHIKEY>
SYSZYPSCOYGERT-OYPGSEKSSA-N

> <PUBCHEM_XLOGP3_AA>
-0.3

> <PUBCHEM_EXACT_MASS>
676.20370636

> <PUBCHEM_MOLECULAR_FORMULA>
C29H40O16S

> <PUBCHEM_MOLECULAR_WEIGHT>
676.7

> <PUBCHEM_OPENEYE_CAN_SMILES>
CC(=O)OCC1C(CC(=O)C(O1)OCCOCCOCC#C)SC2C(C(C(C(O2)COC(=O)C)OC(=O)C)OC(=O)C)OC(=O)C

> <PUBCHEM_OPENEYE_ISO_SMILES>
CC(=O)OC[C@@H]1[C@@H](CC(=O)[C@H](O1)OCCOCCOCC#C)S[C@H]2[C@@H]([C@H]([C@H]([C@H](O2)COC(=O)C)OC(=O)C)OC(=O)C)OC(=O)C

> <PUBCHEM_CACTVS_TPSA>
220

> <PUBCHEM_MONOISOTOPIC_WEIGHT>
676.20370636

> <PUBCHEM_TOTAL_CHARGE>
0

> <PUBCHEM_HEAVY_ATOM_COUNT>
46

> <PUBCHEM_ATOM_DEF_STEREO_COUNT>
8

> <PUBCHEM_ATOM_UDEF_STEREO_COUNT>
0

> <PUBCHEM_BOND_DEF_STEREO_COUNT>
0

> <PUBCHEM_BOND_UDEF_STEREO_COUNT>
0

> <PUBCHEM_ISOTOPIC_ATOM_COUNT>
0

> <PUBCHEM_COMPONENT_COUNT>
1

> <PUBCHEM_CACTVS_TAUTO_COUNT>
-1

> <PUBCHEM_COORDINATE_TYPE>
1
5
255

> <PUBCHEM_BONDANNOTATIONS>
21  1  5
23  1  5
22  25  5
24  29  5
18  3  5
19  4  6
20  5  5
27  8  6

$$$$
