 
  -OEChem-10192104172D

 81 86  0     1  0  0  0  0  0999 V2000
    8.0460    0.4133    0.0000 O   0  0  0  0  0  0  0  0  0  0  0  0
    8.6697    3.3478    0.0000 O   0  0  0  0  0  0  0  0  0  0  0  0
   10.0671    1.2057    0.0000 O   0  0  0  0  0  0  0  0  0  0  0  0
    6.2859    0.6921    0.0000 O   0  0  0  0  0  0  0  0  0  0  0  0
   10.4018    2.7800    0.0000 O   0  0  0  0  0  0  0  0  0  0  0  0
    6.5597    1.7516    0.0000 O   0  0  0  0  0  0  0  0  0  0  0  0
    7.3737   -1.6558    0.0000 O   0  0  0  0  0  0  0  0  0  0  0  0
    5.1981   -1.6558    0.0000 O   0  0  0  0  0  0  0  0  0  0  0  0
    7.1834    4.6860    0.0000 O   0  0  0  0  0  0  0  0  0  0  0  0
    4.3179    1.3915    0.0000 O   0  0  0  0  0  0  0  0  0  0  0  0
    5.9724   -2.6738    0.0000 O   0  0  0  0  0  0  0  0  0  0  0  0
    3.7969   -0.6377    0.0000 O   0  0  0  0  0  0  0  0  0  0  0  0
    2.6237    1.0314    0.0000 O   0  0  0  0  0  0  0  0  0  0  0  0
    8.2539    1.3915    0.0000 C   0  0  2  0  0  0  0  0  0  0  0  0
    9.2050    1.7005    0.0000 C   0  0  2  0  0  0  0  0  0  0  0  0
    7.5108    2.0606    0.0000 C   0  0  2  0  0  0  0  0  0  0  0  0
    9.4129    2.6786    0.0000 C   0  0  2  0  0  0  0  0  0  0  0  0
    7.7187    3.0388    0.0000 C   0  0  1  0  0  0  0  0  0  0  0  0
    7.0949    0.1043    0.0000 C   0  0  2  0  0  0  0  0  0  0  0  0
    6.7859   -0.8467    0.0000 C   0  0  1  0  0  0  0  0  0  0  0  0
    5.7859   -0.8467    0.0000 C   0  0  2  0  0  0  0  0  0  0  0  0
    5.4769    0.1043    0.0000 C   0  0  2  0  0  0  0  0  0  0  0  0
   10.8053    1.8715    0.0000 C   0  0  3  0  0  0  0  0  0  0  0  0
    6.9755    3.7079    0.0000 C   0  0  0  0  0  0  0  0  0  0  0  0
    4.5258    0.4133    0.0000 C   0  0  0  0  0  0  0  0  0  0  0  0
   11.7835    1.6636    0.0000 C   0  0  0  0  0  0  0  0  0  0  0  0
    6.9670   -2.5693    0.0000 C   0  0  0  0  0  0  0  0  0  0  0  0
    4.2036   -1.5512    0.0000 C   0  0  0  0  0  0  0  0  0  0  0  0
    7.5548   -3.3783    0.0000 C   0  0  0  0  0  0  0  0  0  0  0  0
    3.6158   -2.3602    0.0000 C   0  0  0  0  0  0  0  0  0  0  0  0
    3.3669    1.7005    0.0000 C   0  0  0  0  0  0  0  0  0  0  0  0
    3.1590    2.6786    0.0000 C   0  0  0  0  0  0  0  0  0  0  0  0
    7.1480   -4.2919    0.0000 C   0  0  0  0  0  0  0  0  0  0  0  0
    8.5493   -3.2738    0.0000 C   0  0  0  0  0  0  0  0  0  0  0  0
    2.6213   -2.2557    0.0000 C   0  0  0  0  0  0  0  0  0  0  0  0
    4.0226   -3.2738    0.0000 C   0  0  0  0  0  0  0  0  0  0  0  0
    7.7358   -5.1009    0.0000 C   0  0  0  0  0  0  0  0  0  0  0  0
    9.1371   -4.0828    0.0000 C   0  0  0  0  0  0  0  0  0  0  0  0
    2.0335   -3.0647    0.0000 C   0  0  0  0  0  0  0  0  0  0  0  0
    3.4348   -4.0828    0.0000 C   0  0  0  0  0  0  0  0  0  0  0  0
    2.2079    2.9876    0.0000 C   0  0  0  0  0  0  0  0  0  0  0  0
    3.9021    3.3478    0.0000 C   0  0  0  0  0  0  0  0  0  0  0  0
    8.7303   -4.9964    0.0000 C   0  0  0  0  0  0  0  0  0  0  0  0
    2.4403   -3.9783    0.0000 C   0  0  0  0  0  0  0  0  0  0  0  0
    2.0000    3.9658    0.0000 C   0  0  0  0  0  0  0  0  0  0  0  0
    3.6942    4.3259    0.0000 C   0  0  0  0  0  0  0  0  0  0  0  0
    2.7431    4.6349    0.0000 C   0  0  0  0  0  0  0  0  0  0  0  0
    7.6642    1.1999    0.0000 H   0  0  0  0  0  0  0  0  0  0  0  0
    9.1172    0.8550    0.0000 H   0  0  0  0  0  0  0  0  0  0  0  0
    7.0500    2.4755    0.0000 H   0  0  0  0  0  0  0  0  0  0  0  0
    9.6766    3.4867    0.0000 H   0  0  0  0  0  0  0  0  0  0  0  0
    7.8476    3.6452    0.0000 H   0  0  0  0  0  0  0  0  0  0  0  0
    7.1919    0.7167    0.0000 H   0  0  0  0  0  0  0  0  0  0  0  0
    7.3983   -0.7498    0.0000 H   0  0  0  0  0  0  0  0  0  0  0  0
    6.0674   -1.3992    0.0000 H   0  0  0  0  0  0  0  0  0  0  0  0
    5.3799    0.7167    0.0000 H   0  0  0  0  0  0  0  0  0  0  0  0
   11.1957    2.3532    0.0000 H   0  0  0  0  0  0  0  0  0  0  0  0
    6.4007    3.9401    0.0000 H   0  0  0  0  0  0  0  0  0  0  0  0
    6.6470    3.1821    0.0000 H   0  0  0  0  0  0  0  0  0  0  0  0
    3.9062    0.3917    0.0000 H   0  0  0  0  0  0  0  0  0  0  0  0
    4.4396   -0.2006    0.0000 H   0  0  0  0  0  0  0  0  0  0  0  0
    6.0990    2.1665    0.0000 H   0  0  0  0  0  0  0  0  0  0  0  0
   11.6546    1.0571    0.0000 H   0  0  0  0  0  0  0  0  0  0  0  0
   12.3899    1.5347    0.0000 H   0  0  0  0  0  0  0  0  0  0  0  0
   11.9124    2.2700    0.0000 H   0  0  0  0  0  0  0  0  0  0  0  0
    6.7227    5.1009    0.0000 H   0  0  0  0  0  0  0  0  0  0  0  0
    6.5314   -4.3567    0.0000 H   0  0  0  0  0  0  0  0  0  0  0  0
    8.8015   -2.7074    0.0000 H   0  0  0  0  0  0  0  0  0  0  0  0
    2.3691   -1.6893    0.0000 H   0  0  0  0  0  0  0  0  0  0  0  0
    4.6392   -3.3386    0.0000 H   0  0  0  0  0  0  0  0  0  0  0  0
    7.4836   -5.6673    0.0000 H   0  0  0  0  0  0  0  0  0  0  0  0
    9.7537   -4.0180    0.0000 H   0  0  0  0  0  0  0  0  0  0  0  0
    1.4169   -2.9999    0.0000 H   0  0  0  0  0  0  0  0  0  0  0  0
    3.6870   -4.6492    0.0000 H   0  0  0  0  0  0  0  0  0  0  0  0
    1.7472    2.5728    0.0000 H   0  0  0  0  0  0  0  0  0  0  0  0
    4.4918    3.1562    0.0000 H   0  0  0  0  0  0  0  0  0  0  0  0
    9.0948   -5.4980    0.0000 H   0  0  0  0  0  0  0  0  0  0  0  0
    2.0758   -4.4799    0.0000 H   0  0  0  0  0  0  0  0  0  0  0  0
    1.4103    4.1574    0.0000 H   0  0  0  0  0  0  0  0  0  0  0  0
    4.1550    4.7408    0.0000 H   0  0  0  0  0  0  0  0  0  0  0  0
    2.6142    5.2414    0.0000 H   0  0  0  0  0  0  0  0  0  0  0  0
 14  1  1  1  0  0  0
 19  1  1  1  0  0  0
  2 17  1  0  0  0  0
  2 18  1  0  0  0  0
  3 15  1  0  0  0  0
  3 23  1  0  0  0  0
  4 19  1  0  0  0  0
  4 22  1  0  0  0  0
  5 17  1  0  0  0  0
  5 23  1  0  0  0  0
 16  6  1  1  0  0  0
  6 62  1  0  0  0  0
 20  7  1  6  0  0  0
  7 27  1  0  0  0  0
 21  8  1  1  0  0  0
  8 28  1  0  0  0  0
  9 24  1  0  0  0  0
  9 66  1  0  0  0  0
 10 25  1  0  0  0  0
 10 31  1  0  0  0  0
 11 27  2  0  0  0  0
 12 28  2  0  0  0  0
 13 31  2  0  0  0  0
 14 15  1  0  0  0  0
 14 16  1  0  0  0  0
 14 48  1  0  0  0  0
 15 17  1  0  0  0  0
 15 49  1  1  0  0  0
 16 18  1  0  0  0  0
 16 50  1  0  0  0  0
 17 51  1  1  0  0  0
 18 24  1  1  0  0  0
 18 52  1  0  0  0  0
 19 20  1  0  0  0  0
 19 53  1  0  0  0  0
 20 21  1  0  0  0  0
 20 54  1  0  0  0  0
 21 22  1  0  0  0  0
 21 55  1  0  0  0  0
 22 25  1  6  0  0  0
 22 56  1  0  0  0  0
 23 26  1  0  0  0  0
 23 57  1  0  0  0  0
 24 58  1  0  0  0  0
 24 59  1  0  0  0  0
 25 60  1  0  0  0  0
 25 61  1  0  0  0  0
 26 63  1  0  0  0  0
 26 64  1  0  0  0  0
 26 65  1  0  0  0  0
 27 29  1  0  0  0  0
 28 30  1  0  0  0  0
 29 33  2  0  0  0  0
 29 34  1  0  0  0  0
 30 35  2  0  0  0  0
 30 36  1  0  0  0  0
 31 32  1  0  0  0  0
 32 41  2  0  0  0  0
 32 42  1  0  0  0  0
 33 37  1  0  0  0  0
 33 67  1  0  0  0  0
 34 38  2  0  0  0  0
 34 68  1  0  0  0  0
 35 39  1  0  0  0  0
 35 69  1  0  0  0  0
 36 40  2  0  0  0  0
 36 70  1  0  0  0  0
 37 43  2  0  0  0  0
 37 71  1  0  0  0  0
 38 43  1  0  0  0  0
 38 72  1  0  0  0  0
 39 44  2  0  0  0  0
 39 73  1  0  0  0  0
 40 44  1  0  0  0  0
 40 74  1  0  0  0  0
 41 45  1  0  0  0  0
 41 75  1  0  0  0  0
 42 46  2  0  0  0  0
 42 76  1  0  0  0  0
 43 77  1  0  0  0  0
 44 78  1  0  0  0  0
 45 47  2  0  0  0  0
 45 79  1  0  0  0  0
 46 47  1  0  0  0  0
 46 80  1  0  0  0  0
 47 81  1  0  0  0  0
M  END
> <PUBCHEM_COMPOUND_CID>
101119959

> <PUBCHEM_COMPOUND_CANONICALIZED>
1

> <PUBCHEM_CACTVS_COMPLEXITY>
1050

> <PUBCHEM_CACTVS_HBOND_ACCEPTOR>
13

> <PUBCHEM_CACTVS_HBOND_DONOR>
2

> <PUBCHEM_CACTVS_ROTATABLE_BOND>
13

> <PUBCHEM_CACTVS_SUBSKEYS>
AAADcfB8PAAAAAAAAAAAAAAAAAAAASJAAAA0YMEAAAAAAEgBUAAAGgAACAAADBSwmAMyCIAABgCIAiDSCAACAAAkAAAIiAEACMgZNjKANRiicQAlwAEPqYfI6CyOAAAAAAAAAAAAAAAAAAAAAAAAAAAAAA==

> <PUBCHEM_IUPAC_OPENEYE_NAME>
[(2S,3S,4R,5S)-5-[[(3aR,5R,6S,7S,7aR)-6-hydroxy-5-(hydroxymethyl)-2-methyl-5,6,7,7a-tetrahydro-3aH-[1,3]dioxolo[4,5-b]pyran-7-yl]oxy]-3,4-dibenzoyloxy-tetrahydrofuran-2-yl]methyl benzoate

> <PUBCHEM_IUPAC_CAS_NAME>
benzoic acid [(2S,3S,4R,5S)-5-[[(3aR,5R,6S,7S,7aR)-6-hydroxy-5-(hydroxymethyl)-2-methyl-5,6,7,7a-tetrahydro-3aH-[1,3]dioxolo[4,5-b]pyran-7-yl]oxy]-3,4-dibenzoyloxy-2-oxolanyl]methyl ester

> <PUBCHEM_IUPAC_NAME_MARKUP>
[(2<I>S</I>,3<I>S</I>,4<I>R</I>,5<I>S</I>)-5-[[(3<I>a</I><I>R</I>,5<I>R</I>,6<I>S</I>,7<I>S</I>,7<I>a</I><I>R</I>)-6-hydroxy-5-(hydroxymethyl)-2-methyl-5,6,7,7<I>a</I>-tetrahydro-3<I>a</I><I>H</I>-[1,3]dioxolo[4,5-b]pyran-7-yl]oxy]-3,4-dibenzoyloxyoxolan-2-yl]methyl benzoate

> <PUBCHEM_IUPAC_NAME>
[(2S,3S,4R,5S)-5-[[(3aR,5R,6S,7S,7aR)-6-hydroxy-5-(hydroxymethyl)-2-methyl-5,6,7,7a-tetrahydro-3aH-[1,3]dioxolo[4,5-b]pyran-7-yl]oxy]-3,4-dibenzoyloxyoxolan-2-yl]methyl benzoate

> <PUBCHEM_IUPAC_SYSTEMATIC_NAME>
[(2S,3S,4R,5S)-5-[[(3aR,5R,6S,7S,7aR)-5-(hydroxymethyl)-2-methyl-6-oxidanyl-5,6,7,7a-tetrahydro-3aH-[1,3]dioxolo[4,5-b]pyran-7-yl]oxy]-3,4-bis(phenylcarbonyloxy)oxolan-2-yl]methyl benzoate

> <PUBCHEM_IUPAC_TRADITIONAL_NAME>
benzoic acid [(2S,3S,4R,5S)-5-[[(3aR,5R,6S,7S,7aR)-6-hydroxy-2-methyl-5-methylol-5,6,7,7a-tetrahydro-3aH-[1,3]dioxolo[4,5-b]pyran-7-yl]oxy]-3,4-dibenzoyloxy-tetrahydrofuran-2-yl]methyl ester

> <PUBCHEM_IUPAC_INCHI>
InChI=1S/C34H34O13/c1-19-41-29-27(25(36)23(17-35)43-33(29)42-19)47-34-28(46-32(39)22-15-9-4-10-16-22)26(45-31(38)21-13-7-3-8-14-21)24(44-34)18-40-30(37)20-11-5-2-6-12-20/h2-16,19,23-29,33-36H,17-18H2,1H3/t19?,23-,24+,25+,26+,27+,28-,29-,33+,34+/m1/s1

> <PUBCHEM_IUPAC_INCHIKEY>
XTFNLQZDEFLWMI-XQVDMCLISA-N

> <PUBCHEM_XLOGP3_AA>
4

> <PUBCHEM_EXACT_MASS>
650.19994113

> <PUBCHEM_MOLECULAR_FORMULA>
C34H34O13

> <PUBCHEM_MOLECULAR_WEIGHT>
650.6

> <PUBCHEM_OPENEYE_CAN_SMILES>
CC1OC2C(C(C(OC2O1)CO)O)OC3C(C(C(O3)COC(=O)C4=CC=CC=C4)OC(=O)C5=CC=CC=C5)OC(=O)C6=CC=CC=C6

> <PUBCHEM_OPENEYE_ISO_SMILES>
CC1O[C@@H]2[C@H]([C@H]([C@H](O[C@@H]2O1)CO)O)O[C@H]3[C@@H]([C@H]([C@@H](O3)COC(=O)C4=CC=CC=C4)OC(=O)C5=CC=CC=C5)OC(=O)C6=CC=CC=C6

> <PUBCHEM_CACTVS_TPSA>
166

> <PUBCHEM_MONOISOTOPIC_WEIGHT>
650.19994113

> <PUBCHEM_TOTAL_CHARGE>
0

> <PUBCHEM_HEAVY_ATOM_COUNT>
47

> <PUBCHEM_ATOM_DEF_STEREO_COUNT>
9

> <PUBCHEM_ATOM_UDEF_STEREO_COUNT>
1

> <PUBCHEM_BOND_DEF_STEREO_COUNT>
0

> <PUBCHEM_BOND_UDEF_STEREO_COUNT>
0

> <PUBCHEM_ISOTOPIC_ATOM_COUNT>
0

> <PUBCHEM_COMPONENT_COUNT>
1

> <PUBCHEM_CACTVS_TAUTO_COUNT>
-1

> <PUBCHEM_COORDINATE_TYPE>
1
5
255

> <PUBCHEM_BONDANNOTATIONS>
14  1  5
19  1  5
15  49  5
17  51  5
18  24  5
22  25  6
23  26  3
29  33  8
29  34  8
30  35  8
30  36  8
32  41  8
32  42  8
33  37  8
34  38  8
35  39  8
36  40  8
37  43  8
38  43  8
39  44  8
40  44  8
41  45  8
42  46  8
45  47  8
46  47  8
16  6  5
20  7  6
21  8  5

$$$$
