 
  -OEChem-10192104082D

 71 73  0     1  0  0  0  0  0999 V2000
    6.6353   -0.8877    0.0000 O   0  0  0  0  0  0  0  0  0  0  0  0
    8.5458    2.1701    0.0000 O   0  0  0  0  0  0  0  0  0  0  0  0
    6.8994    2.7082    0.0000 O   0  4  0  0  0  0  0  0  0  0  0  0
    3.7320   -1.6049    0.0000 C   0  0  1  0  0  0  0  0  0  0  0  0
    3.7320   -2.6049    0.0000 C   0  0  1  0  0  0  0  0  0  0  0  0
    4.6783   -1.3001    0.0000 C   0  0  2  0  0  0  0  0  0  0  0  0
    4.6783   -2.9096    0.0000 C   0  0  0  0  0  0  0  0  0  0  0  0
    5.2619   -2.1049    0.0000 C   0  0  0  0  0  0  0  0  0  0  0  0
    2.8660   -1.1049    0.0000 C   0  0  0  0  0  0  0  0  0  0  0  0
    2.8660   -3.1049    0.0000 C   0  0  0  0  0  0  0  0  0  0  0  0
    4.9889   -0.3496    0.0000 C   0  0  1  0  0  0  0  0  0  0  0  0
    3.7320   -0.6049    0.0000 C   0  0  0  0  0  0  0  0  0  0  0  0
    2.0000   -1.6049    0.0000 C   0  0  0  0  0  0  0  0  0  0  0  0
    2.0000   -2.6049    0.0000 C   0  0  0  0  0  0  0  0  0  0  0  0
    5.9674   -0.1434    0.0000 C   0  0  1  0  0  0  0  0  0  0  0  0
    4.3211    0.3947    0.0000 C   0  0  0  0  0  0  0  0  0  0  0  0
    6.2781    0.8071    0.0000 C   0  0  0  0  0  0  0  0  0  0  0  0
    7.2566    1.0133    0.0000 C   0  0  0  0  0  0  0  0  0  0  0  0
    7.6138   -0.6815    0.0000 C   0  0  0  0  0  0  0  0  0  0  0  0
    7.9244    0.2690    0.0000 C   0  0  0  0  0  0  0  0  0  0  0  0
    7.5673    1.9639    0.0000 C   0  0  0  0  0  0  0  0  0  0  0  0
    8.2816   -1.4258    0.0000 C   0  0  0  0  0  0  0  0  0  0  0  0
    8.9030    0.4753    0.0000 C   0  0  0  0  0  0  0  0  0  0  0  0
    9.2601   -1.2196    0.0000 C   0  0  0  0  0  0  0  0  0  0  0  0
    7.9710   -2.3763    0.0000 C   0  0  0  0  0  0  0  0  0  0  0  0
    9.2136    1.4258    0.0000 C   0  0  0  0  0  0  0  0  0  0  0  0
    9.9280   -1.9639    0.0000 C   0  0  0  0  0  0  0  0  0  0  0  0
    8.6388   -3.1206    0.0000 C   0  0  0  0  0  0  0  0  0  0  0  0
    8.8564    3.1206    0.0000 C   0  0  0  0  0  0  0  0  0  0  0  0
    9.6173   -2.9144    0.0000 C   0  0  0  0  0  0  0  0  0  0  0  0
    3.8220   -3.4501    0.0000 H   0  0  0  0  0  0  0  0  0  0  0  0
    5.5180   -1.1683    0.0000 H   0  0  0  0  0  0  0  0  0  0  0  0
    4.4272   -3.4765    0.0000 H   0  0  0  0  0  0  0  0  0  0  0  0
    5.2156   -3.2188    0.0000 H   0  0  0  0  0  0  0  0  0  0  0  0
    5.7227   -2.5196    0.0000 H   0  0  0  0  0  0  0  0  0  0  0  0
    5.7227   -1.6901    0.0000 H   0  0  0  0  0  0  0  0  0  0  0  0
    3.2646   -0.6299    0.0000 H   0  0  0  0  0  0  0  0  0  0  0  0
    2.4675   -0.6299    0.0000 H   0  0  0  0  0  0  0  0  0  0  0  0
    2.4675   -3.5798    0.0000 H   0  0  0  0  0  0  0  0  0  0  0  0
    3.2646   -3.5798    0.0000 H   0  0  0  0  0  0  0  0  0  0  0  0
    5.1815    0.2397    0.0000 H   0  0  0  0  0  0  0  0  0  0  0  0
    4.3520   -0.6049    0.0000 H   0  0  0  0  0  0  0  0  0  0  0  0
    3.7320    0.0151    0.0000 H   0  0  0  0  0  0  0  0  0  0  0  0
    3.1120   -0.6049    0.0000 H   0  0  0  0  0  0  0  0  0  0  0  0
    1.7880   -1.0223    0.0000 H   0  0  0  0  0  0  0  0  0  0  0  0
    1.3894   -1.7125    0.0000 H   0  0  0  0  0  0  0  0  0  0  0  0
    1.3894   -2.4972    0.0000 H   0  0  0  0  0  0  0  0  0  0  0  0
    1.7880   -3.1875    0.0000 H   0  0  0  0  0  0  0  0  0  0  0  0
    5.7748   -0.7327    0.0000 H   0  0  0  0  0  0  0  0  0  0  0  0
    4.7826    0.8088    0.0000 H   0  0  0  0  0  0  0  0  0  0  0  0
    3.9070    0.8562    0.0000 H   0  0  0  0  0  0  0  0  0  0  0  0
    3.8596   -0.0194    0.0000 H   0  0  0  0  0  0  0  0  0  0  0  0
    6.2575    1.4268    0.0000 H   0  0  0  0  0  0  0  0  0  0  0  0
    5.6643    0.8945    0.0000 H   0  0  0  0  0  0  0  0  0  0  0  0
    8.1402   -0.3538    0.0000 H   0  0  0  0  0  0  0  0  0  0  0  0
    7.3825   -0.1062    0.0000 H   0  0  0  0  0  0  0  0  0  0  0  0
    7.3981   -0.0586    0.0000 H   0  0  0  0  0  0  0  0  0  0  0  0
    8.1557   -0.3062    0.0000 H   0  0  0  0  0  0  0  0  0  0  0  0
    8.9235   -0.1444    0.0000 H   0  0  0  0  0  0  0  0  0  0  0  0
    9.5168    0.3879    0.0000 H   0  0  0  0  0  0  0  0  0  0  0  0
    9.4528   -0.6302    0.0000 H   0  0  0  0  0  0  0  0  0  0  0  0
    7.3643   -2.5042    0.0000 H   0  0  0  0  0  0  0  0  0  0  0  0
    9.8029    1.2332    0.0000 H   0  0  0  0  0  0  0  0  0  0  0  0
    9.4062    2.0151    0.0000 H   0  0  0  0  0  0  0  0  0  0  0  0
    8.6243    1.6184    0.0000 H   0  0  0  0  0  0  0  0  0  0  0  0
   10.5347   -1.8360    0.0000 H   0  0  0  0  0  0  0  0  0  0  0  0
    8.4462   -3.7099    0.0000 H   0  0  0  0  0  0  0  0  0  0  0  0
    9.4458    2.9280    0.0000 H   0  0  0  0  0  0  0  0  0  0  0  0
    9.0490    3.7099    0.0000 H   0  0  0  0  0  0  0  0  0  0  0  0
    8.2671    3.3132    0.0000 H   0  0  0  0  0  0  0  0  0  0  0  0
   10.0314   -3.3758    0.0000 H   0  0  0  0  0  0  0  0  0  0  0  0
 15  1  1  1  0  0  0
  1 19  1  0  0  0  0
  2 21  1  0  0  0  0
  2 29  1  0  0  0  0
  3 21  1  0  0  0  0
  4  5  1  0  0  0  0
  4  6  1  0  0  0  0
  4  9  1  0  0  0  0
  4 12  1  1  0  0  0
  5  7  1  0  0  0  0
  5 10  1  0  0  0  0
  5 31  1  6  0  0  0
  6  8  1  0  0  0  0
  6 11  1  0  0  0  0
  6 32  1  6  0  0  0
  7  8  1  0  0  0  0
  7 33  1  0  0  0  0
  7 34  1  0  0  0  0
  8 35  1  0  0  0  0
  8 36  1  0  0  0  0
  9 13  1  0  0  0  0
  9 37  1  0  0  0  0
  9 38  1  0  0  0  0
 10 14  1  0  0  0  0
 10 39  1  0  0  0  0
 10 40  1  0  0  0  0
 11 15  1  0  0  0  0
 11 16  1  6  0  0  0
 11 41  1  0  0  0  0
 12 42  1  0  0  0  0
 12 43  1  0  0  0  0
 12 44  1  0  0  0  0
 13 14  1  0  0  0  0
 13 45  1  0  0  0  0
 13 46  1  0  0  0  0
 14 47  1  0  0  0  0
 14 48  1  0  0  0  0
 15 17  1  0  0  0  0
 15 49  1  0  0  0  0
 16 50  1  0  0  0  0
 16 51  1  0  0  0  0
 16 52  1  0  0  0  0
 17 18  1  0  0  0  0
 17 53  1  0  0  0  0
 17 54  1  0  0  0  0
 18 20  1  0  0  0  0
 18 21  2  3  0  0  0
 19 22  1  0  0  0  0
 19 55  1  0  0  0  0
 19 56  1  0  0  0  0
 20 23  1  0  0  0  0
 20 57  1  0  0  0  0
 20 58  1  0  0  0  0
 22 24  2  0  0  0  0
 22 25  1  0  0  0  0
 23 26  1  0  0  0  0
 23 59  1  0  0  0  0
 23 60  1  0  0  0  0
 24 27  1  0  0  0  0
 24 61  1  0  0  0  0
 25 28  2  0  0  0  0
 25 62  1  0  0  0  0
 26 63  1  0  0  0  0
 26 64  1  0  0  0  0
 26 65  1  0  0  0  0
 27 30  2  0  0  0  0
 27 66  1  0  0  0  0
 28 30  1  0  0  0  0
 28 67  1  0  0  0  0
 29 68  1  0  0  0  0
 29 69  1  0  0  0  0
 29 70  1  0  0  0  0
 30 71  1  0  0  0  0
M  RAD  1   3   2
M  END
> <PUBCHEM_COMPOUND_CID>
101151248

> <PUBCHEM_COMPOUND_CANONICALIZED>
1

> <PUBCHEM_CACTVS_COMPLEXITY>
550

> <PUBCHEM_CACTVS_HBOND_ACCEPTOR>
2

> <PUBCHEM_CACTVS_HBOND_DONOR>
0

> <PUBCHEM_CACTVS_ROTATABLE_BOND>
10

> <PUBCHEM_CACTVS_SUBSKEYS>
AAADcfB4MAAAAAAAAAAAAAAAAAAAAYAAAAAwYAAAAAAAAGABAAAAGgAAAAAADxSgmAIyCIAABACAAiBCAAACCAAgIAAIiAAACIgYJiKAMRiCMAAkwAEIqAeAwPAPgAAAAAAAAAAAAAAAACAAAQAACAAAAA==

> <PUBCHEM_IUPAC_INCHI>
InChI=1S/C27H41O3/c1-5-11-22(26(28)29-4)18-25(30-19-21-12-7-6-8-13-21)20(2)24-16-15-23-14-9-10-17-27(23,24)3/h6-8,12-13,20,23-25H,5,9-11,14-19H2,1-4H3/t20-,23+,24+,25+,27-/m0/s1

> <PUBCHEM_IUPAC_INCHIKEY>
JCQQQSQBQQARKT-WSXDNQGXSA-N

> <PUBCHEM_XLOGP3_AA>
8.6

> <PUBCHEM_EXACT_MASS>
413.30557017

> <PUBCHEM_MOLECULAR_FORMULA>
C27H41O3

> <PUBCHEM_MOLECULAR_WEIGHT>
413.6

> <PUBCHEM_OPENEYE_CAN_SMILES>
CCCC(=C([O])OC)CC(C(C)C1CCC2C1(CCCC2)C)OCC3=CC=CC=C3

> <PUBCHEM_OPENEYE_ISO_SMILES>
CCCC(=C([O])OC)C[C@H]([C@@H](C)[C@H]1CC[C@@H]2[C@@]1(CCCC2)C)OCC3=CC=CC=C3

> <PUBCHEM_CACTVS_TPSA>
19.5

> <PUBCHEM_MONOISOTOPIC_WEIGHT>
413.30557017

> <PUBCHEM_TOTAL_CHARGE>
0

> <PUBCHEM_HEAVY_ATOM_COUNT>
30

> <PUBCHEM_ATOM_DEF_STEREO_COUNT>
5

> <PUBCHEM_ATOM_UDEF_STEREO_COUNT>
0

> <PUBCHEM_BOND_DEF_STEREO_COUNT>
0

> <PUBCHEM_BOND_UDEF_STEREO_COUNT>
1

> <PUBCHEM_ISOTOPIC_ATOM_COUNT>
0

> <PUBCHEM_COMPONENT_COUNT>
1

> <PUBCHEM_CACTVS_TAUTO_COUNT>
-1

> <PUBCHEM_COORDINATE_TYPE>
1
5
255

> <PUBCHEM_BONDANNOTATIONS>
15  1  5
11  16  6
18  21  1
22  24  8
22  25  8
24  27  8
25  28  8
27  30  8
28  30  8
4  12  5
5  31  6
6  32  6

$$$$
