 
  -OEChem-10192104412D

 48 51  0     0  0  0  0  0  0999 V2000
    2.8660   -2.2852    0.0000 S   0  0  0  0  0  0  0  0  0  0  0  0
    6.2731    0.8026    0.0000 S   0  0  0  0  0  0  0  0  0  0  0  0
    2.3660   -3.1512    0.0000 O   0  0  0  0  0  0  0  0  0  0  0  0
    3.3660   -1.4192    0.0000 O   0  0  0  0  0  0  0  0  0  0  0  0
    3.7320   -0.7852    0.0000 O   0  0  0  0  0  0  0  0  0  0  0  0
    6.2429    3.5137    0.0000 N   0  0  0  0  0  0  0  0  0  0  0  0
    5.4641   -0.7852    0.0000 N   0  0  0  0  0  0  0  0  0  0  0  0
    4.6551    0.8026    0.0000 N   0  0  0  0  0  0  0  0  0  0  0  0
    7.5519    2.5626    0.0000 N   0  0  0  0  0  0  0  0  0  0  0  0
    5.9641    1.7536    0.0000 C   0  0  0  0  0  0  0  0  0  0  0  0
    3.7320   -2.7852    0.0000 C   0  0  0  0  0  0  0  0  0  0  0  0
    4.9641    1.7536    0.0000 C   0  0  0  0  0  0  0  0  0  0  0  0
    4.5981   -2.2852    0.0000 C   0  0  0  0  0  0  0  0  0  0  0  0
    6.5519    2.5626    0.0000 C   0  0  0  0  0  0  0  0  0  0  0  0
    4.3763    2.5626    0.0000 C   0  0  0  0  0  0  0  0  0  0  0  0
    5.4641    0.2148    0.0000 C   0  0  0  0  0  0  0  0  0  0  0  0
    4.5981   -1.2852    0.0000 C   0  0  0  0  0  0  0  0  0  0  0  0
    3.7320   -3.7852    0.0000 C   0  0  0  0  0  0  0  0  0  0  0  0
    5.4641   -2.7852    0.0000 C   0  0  0  0  0  0  0  0  0  0  0  0
    2.0000   -1.7852    0.0000 C   0  0  0  0  0  0  0  0  0  0  0  0
    7.0519    4.1015    0.0000 C   0  0  0  0  0  0  0  0  0  0  0  0
    4.5981   -4.2852    0.0000 C   0  0  0  0  0  0  0  0  0  0  0  0
    5.4641   -3.7852    0.0000 C   0  0  0  0  0  0  0  0  0  0  0  0
    3.3818    2.4581    0.0000 C   0  0  0  0  0  0  0  0  0  0  0  0
    4.7830    3.4762    0.0000 C   0  0  0  0  0  0  0  0  0  0  0  0
    5.2918    3.8227    0.0000 C   0  0  0  0  0  0  0  0  0  0  0  0
    7.8609    3.5137    0.0000 C   0  0  0  0  0  0  0  0  0  0  0  0
    2.7940    3.2671    0.0000 C   0  0  0  0  0  0  0  0  0  0  0  0
    4.1953    4.2852    0.0000 C   0  0  0  0  0  0  0  0  0  0  0  0
    3.2008    4.1807    0.0000 C   0  0  0  0  0  0  0  0  0  0  0  0
    3.1951   -4.0952    0.0000 H   0  0  0  0  0  0  0  0  0  0  0  0
    6.0010   -1.0952    0.0000 H   0  0  0  0  0  0  0  0  0  0  0  0
    6.0010   -2.4752    0.0000 H   0  0  0  0  0  0  0  0  0  0  0  0
    2.3100   -1.2483    0.0000 H   0  0  0  0  0  0  0  0  0  0  0  0
    1.4631   -1.4752    0.0000 H   0  0  0  0  0  0  0  0  0  0  0  0
    1.6900   -2.3222    0.0000 H   0  0  0  0  0  0  0  0  0  0  0  0
    7.0519    4.7215    0.0000 H   0  0  0  0  0  0  0  0  0  0  0  0
    4.5981   -4.9052    0.0000 H   0  0  0  0  0  0  0  0  0  0  0  0
    6.0010   -4.0952    0.0000 H   0  0  0  0  0  0  0  0  0  0  0  0
    3.1296    1.8917    0.0000 H   0  0  0  0  0  0  0  0  0  0  0  0
    5.3997    3.5410    0.0000 H   0  0  0  0  0  0  0  0  0  0  0  0
    5.4834    4.4124    0.0000 H   0  0  0  0  0  0  0  0  0  0  0  0
    4.7022    4.0143    0.0000 H   0  0  0  0  0  0  0  0  0  0  0  0
    5.1002    3.2331    0.0000 H   0  0  0  0  0  0  0  0  0  0  0  0
    8.4506    3.7053    0.0000 H   0  0  0  0  0  0  0  0  0  0  0  0
    2.1774    3.2023    0.0000 H   0  0  0  0  0  0  0  0  0  0  0  0
    4.4474    4.8516    0.0000 H   0  0  0  0  0  0  0  0  0  0  0  0
    2.8363    4.6823    0.0000 H   0  0  0  0  0  0  0  0  0  0  0  0
  1  3  2  0  0  0  0
  1  4  2  0  0  0  0
  1 11  1  0  0  0  0
  1 20  1  0  0  0  0
  2 10  1  0  0  0  0
  2 16  1  0  0  0  0
  5 17  2  0  0  0  0
  6 14  1  0  0  0  0
  6 21  1  0  0  0  0
  6 26  1  0  0  0  0
  7 16  1  0  0  0  0
  7 17  1  0  0  0  0
  7 32  1  0  0  0  0
  8 12  1  0  0  0  0
  8 16  2  0  0  0  0
  9 14  2  0  0  0  0
  9 27  1  0  0  0  0
 10 12  2  0  0  0  0
 10 14  1  0  0  0  0
 11 13  1  0  0  0  0
 11 18  2  0  0  0  0
 12 15  1  0  0  0  0
 13 17  1  0  0  0  0
 13 19  2  0  0  0  0
 15 24  2  0  0  0  0
 15 25  1  0  0  0  0
 18 22  1  0  0  0  0
 18 31  1  0  0  0  0
 19 23  1  0  0  0  0
 19 33  1  0  0  0  0
 20 34  1  0  0  0  0
 20 35  1  0  0  0  0
 20 36  1  0  0  0  0
 21 27  2  0  0  0  0
 21 37  1  0  0  0  0
 22 23  2  0  0  0  0
 22 38  1  0  0  0  0
 23 39  1  0  0  0  0
 24 28  1  0  0  0  0
 24 40  1  0  0  0  0
 25 29  2  0  0  0  0
 25 41  1  0  0  0  0
 26 42  1  0  0  0  0
 26 43  1  0  0  0  0
 26 44  1  0  0  0  0
 27 45  1  0  0  0  0
 28 30  2  0  0  0  0
 28 46  1  0  0  0  0
 29 30  1  0  0  0  0
 29 47  1  0  0  0  0
 30 48  1  0  0  0  0
M  END
> <PUBCHEM_COMPOUND_CID>
55514296

> <PUBCHEM_COMPOUND_CANONICALIZED>
1

> <PUBCHEM_CACTVS_COMPLEXITY>
708

> <PUBCHEM_CACTVS_HBOND_ACCEPTOR>
6

> <PUBCHEM_CACTVS_HBOND_DONOR>
1

> <PUBCHEM_CACTVS_ROTATABLE_BOND>
5

> <PUBCHEM_CACTVS_SUBSKEYS>
AAADceB7sABgAAAAAAAAAAAAAAAAAWLAAAAwYAAAAAAAAAAB9AAAHgQQAAAADAjB3wS/kZfMEAqsAzd3dHDC8K11GrkJ2D04dNiIaLLg3RGUIQhogQLIiacYiICOAAAAAAAEAAAAAAAAAAgAAAAAAAAAAA==

> <PUBCHEM_IUPAC_OPENEYE_NAME>
N-[5-(1-methylimidazol-2-yl)-4-phenyl-thiazol-2-yl]-2-methylsulfonyl-benzamide

> <PUBCHEM_IUPAC_CAS_NAME>
N-[5-(1-methyl-2-imidazolyl)-4-phenyl-2-thiazolyl]-2-methylsulfonylbenzamide

> <PUBCHEM_IUPAC_NAME_MARKUP>
<I>N</I>-[5-(1-methylimidazol-2-yl)-4-phenyl-1,3-thiazol-2-yl]-2-methylsulfonylbenzamide

> <PUBCHEM_IUPAC_NAME>
N-[5-(1-methylimidazol-2-yl)-4-phenyl-1,3-thiazol-2-yl]-2-methylsulfonylbenzamide

> <PUBCHEM_IUPAC_SYSTEMATIC_NAME>
N-[5-(1-methylimidazol-2-yl)-4-phenyl-1,3-thiazol-2-yl]-2-methylsulfonyl-benzamide

> <PUBCHEM_IUPAC_TRADITIONAL_NAME>
2-mesyl-N-[5-(1-methylimidazol-2-yl)-4-phenyl-thiazol-2-yl]benzamide

> <PUBCHEM_IUPAC_INCHI>
InChI=1S/C21H18N4O3S2/c1-25-13-12-22-19(25)18-17(14-8-4-3-5-9-14)23-21(29-18)24-20(26)15-10-6-7-11-16(15)30(2,27)28/h3-13H,1-2H3,(H,23,24,26)

> <PUBCHEM_IUPAC_INCHIKEY>
BUCIMPHIJUAWJB-UHFFFAOYSA-N

> <PUBCHEM_XLOGP3_AA>
2.8

> <PUBCHEM_EXACT_MASS>
438.08203280

> <PUBCHEM_MOLECULAR_FORMULA>
C21H18N4O3S2

> <PUBCHEM_MOLECULAR_WEIGHT>
438.5

> <PUBCHEM_OPENEYE_CAN_SMILES>
CN1C=CN=C1C2=C(N=C(S2)NC(=O)C3=CC=CC=C3S(=O)(=O)C)C4=CC=CC=C4

> <PUBCHEM_OPENEYE_ISO_SMILES>
CN1C=CN=C1C2=C(N=C(S2)NC(=O)C3=CC=CC=C3S(=O)(=O)C)C4=CC=CC=C4

> <PUBCHEM_CACTVS_TPSA>
131

> <PUBCHEM_MONOISOTOPIC_WEIGHT>
438.08203280

> <PUBCHEM_TOTAL_CHARGE>
0

> <PUBCHEM_HEAVY_ATOM_COUNT>
30

> <PUBCHEM_ATOM_DEF_STEREO_COUNT>
0

> <PUBCHEM_ATOM_UDEF_STEREO_COUNT>
0

> <PUBCHEM_BOND_DEF_STEREO_COUNT>
0

> <PUBCHEM_BOND_UDEF_STEREO_COUNT>
0

> <PUBCHEM_ISOTOPIC_ATOM_COUNT>
0

> <PUBCHEM_COMPONENT_COUNT>
1

> <PUBCHEM_CACTVS_TAUTO_COUNT>
-1

> <PUBCHEM_COORDINATE_TYPE>
1
5
255

> <PUBCHEM_BONDANNOTATIONS>
10  12  8
11  13  8
11  18  8
13  19  8
15  24  8
15  25  8
18  22  8
19  23  8
2  10  8
2  16  8
21  27  8
22  23  8
24  28  8
25  29  8
28  30  8
29  30  8
6  14  8
6  21  8
8  12  8
8  16  8
9  14  8
9  27  8

$$$$
