 
  -OEChem-10192104132D

 98101  0     1  0  0  0  0  0999 V2000
    7.1962    1.2148    0.0000 O   0  0  0  0  0  0  0  0  0  0  0  0
    8.0371    5.0013    0.0000 O   0  0  0  0  0  0  0  0  0  0  0  0
   10.1193    3.4363    0.0000 O   0  0  0  0  0  0  0  0  0  0  0  0
    5.4641    1.2148    0.0000 O   0  0  0  0  0  0  0  0  0  0  0  0
    5.4641   -1.7852    0.0000 O   0  0  0  0  0  0  0  0  0  0  0  0
    5.4361    2.4936    0.0000 O   0  0  0  0  0  0  0  0  0  0  0  0
    6.1084    4.5626    0.0000 O   0  0  0  0  0  0  0  0  0  0  0  0
    7.1962   -1.7852    0.0000 O   0  0  0  0  0  0  0  0  0  0  0  0
    3.7320   -0.7852    0.0000 O   0  0  0  0  0  0  0  0  0  0  0  0
    7.1962   -0.7852    0.0000 O   0  0  0  0  0  0  0  0  0  0  0  0
    7.1962   -4.7852    0.0000 O   0  0  0  0  0  0  0  0  0  0  0  0
    5.4641   -3.7852    0.0000 O   0  0  0  0  0  0  0  0  0  0  0  0
    8.9282   -3.7852    0.0000 O   0  0  0  0  0  0  0  0  0  0  0  0
    3.7320    2.2148    0.0000 O   0  0  0  0  0  0  0  0  0  0  0  0
    8.9282   -0.7852    0.0000 O   0  0  0  0  0  0  0  0  0  0  0  0
    3.7419    2.8537    0.0000 O   0  0  0  0  0  0  0  0  0  0  0  0
    7.5096    5.5807    0.0000 O   0  0  0  0  0  0  0  0  0  0  0  0
    2.8660    0.7148    0.0000 O   0  0  0  0  0  0  0  0  0  0  0  0
    8.9282   -4.7852    0.0000 O   0  0  0  0  0  0  0  0  0  0  0  0
    9.7942   -2.2852    0.0000 O   0  0  0  0  0  0  0  0  0  0  0  0
    2.0000    2.2148    0.0000 O   0  0  0  0  0  0  0  0  0  0  0  0
   10.6603   -0.7852    0.0000 O   0  0  0  0  0  0  0  0  0  0  0  0
    7.1962    2.2148    0.0000 C   0  0  2  0  0  0  0  0  0  0  0  0
    8.4466    3.0373    0.0000 C   0  0  1  0  0  0  0  0  0  0  0  0
    6.3871    2.8026    0.0000 C   0  0  1  0  0  0  0  0  0  0  0  0
    6.6962    3.7536    0.0000 C   0  0  2  0  0  0  0  0  0  0  0  0
    8.7390    3.9936    0.0000 C   0  0  1  0  0  0  0  0  0  0  0  0
    5.4641   -0.7852    0.0000 C   0  0  2  0  0  0  0  0  0  0  0  0
    6.3301    0.7148    0.0000 C   0  0  2  0  0  0  0  0  0  0  0  0
    6.3301   -0.2852    0.0000 C   0  0  1  0  0  0  0  0  0  0  0  0
    4.5981   -0.2852    0.0000 C   0  0  1  0  0  0  0  0  0  0  0  0
    9.8270    2.4800    0.0000 C   0  0  0  0  0  0  0  0  0  0  0  0
    4.5981    0.7148    0.0000 C   0  0  1  0  0  0  0  0  0  0  0  0
    6.3301   -2.2852    0.0000 C   0  0  1  0  0  0  0  0  0  0  0  0
    6.3301   -3.2852    0.0000 C   0  0  2  0  0  0  0  0  0  0  0  0
    7.1962   -3.7852    0.0000 C   0  0  2  0  0  0  0  0  0  0  0  0
    8.0622   -3.2852    0.0000 C   0  0  1  0  0  0  0  0  0  0  0  0
    8.0622   -2.2852    0.0000 C   0  0  1  0  0  0  0  0  0  0  0  0
    3.7320    1.2148    0.0000 C   0  0  0  0  0  0  0  0  0  0  0  0
    8.9282   -1.7852    0.0000 C   0  0  0  0  0  0  0  0  0  0  0  0
    4.6929    3.1627    0.0000 C   0  0  0  0  0  0  0  0  0  0  0  0
    6.5151    5.4762    0.0000 C   0  0  0  0  0  0  0  0  0  0  0  0
    2.8660   -0.2852    0.0000 C   0  0  0  0  0  0  0  0  0  0  0  0
    4.9008    4.1408    0.0000 C   0  0  0  0  0  0  0  0  0  0  0  0
    5.9273    6.2852    0.0000 C   0  0  0  0  0  0  0  0  0  0  0  0
    8.0622   -5.2852    0.0000 C   0  0  0  0  0  0  0  0  0  0  0  0
    9.7942   -3.2852    0.0000 C   0  0  0  0  0  0  0  0  0  0  0  0
    2.0000   -0.7852    0.0000 C   0  0  0  0  0  0  0  0  0  0  0  0
    2.8660    2.7148    0.0000 C   0  0  0  0  0  0  0  0  0  0  0  0
    8.0622   -6.2852    0.0000 C   0  0  0  0  0  0  0  0  0  0  0  0
    9.7942   -0.2852    0.0000 C   0  0  0  0  0  0  0  0  0  0  0  0
   10.6603   -3.7852    0.0000 C   0  0  0  0  0  0  0  0  0  0  0  0
    2.8660    3.7148    0.0000 C   0  0  0  0  0  0  0  0  0  0  0  0
    9.7942    0.7148    0.0000 C   0  0  0  0  0  0  0  0  0  0  0  0
    6.6437    1.9333    0.0000 H   0  0  0  0  0  0  0  0  0  0  0  0
    8.1981    2.2244    0.0000 H   0  0  0  0  0  0  0  0  0  0  0  0
    6.2902    2.1902    0.0000 H   0  0  0  0  0  0  0  0  0  0  0  0
    6.0838    3.6566    0.0000 H   0  0  0  0  0  0  0  0  0  0  0  0
    8.9875    4.8065    0.0000 H   0  0  0  0  0  0  0  0  0  0  0  0
    4.9272   -1.0952    0.0000 H   0  0  0  0  0  0  0  0  0  0  0  0
    6.3301    1.3348    0.0000 H   0  0  0  0  0  0  0  0  0  0  0  0
    6.3301   -0.9052    0.0000 H   0  0  0  0  0  0  0  0  0  0  0  0
    4.5981   -0.9052    0.0000 H   0  0  0  0  0  0  0  0  0  0  0  0
    9.6116    1.8986    0.0000 H   0  0  0  0  0  0  0  0  0  0  0  0
   10.4144    2.2816    0.0000 H   0  0  0  0  0  0  0  0  0  0  0  0
    4.5981    1.3348    0.0000 H   0  0  0  0  0  0  0  0  0  0  0  0
    6.3301   -1.6652    0.0000 H   0  0  0  0  0  0  0  0  0  0  0  0
    6.3301   -3.9052    0.0000 H   0  0  0  0  0  0  0  0  0  0  0  0
    6.6592   -4.0952    0.0000 H   0  0  0  0  0  0  0  0  0  0  0  0
    8.0622   -3.9052    0.0000 H   0  0  0  0  0  0  0  0  0  0  0  0
    8.0622   -1.6652    0.0000 H   0  0  0  0  0  0  0  0  0  0  0  0
    3.1215    1.3224    0.0000 H   0  0  0  0  0  0  0  0  0  0  0  0
    3.5200    0.6322    0.0000 H   0  0  0  0  0  0  0  0  0  0  0  0
    7.7331   -0.4752    0.0000 H   0  0  0  0  0  0  0  0  0  0  0  0
    9.1403   -2.3678    0.0000 H   0  0  0  0  0  0  0  0  0  0  0  0
    9.5388   -1.6776    0.0000 H   0  0  0  0  0  0  0  0  0  0  0  0
    5.4641   -4.4052    0.0000 H   0  0  0  0  0  0  0  0  0  0  0  0
    5.5073    4.0119    0.0000 H   0  0  0  0  0  0  0  0  0  0  0  0
    5.0298    4.7473    0.0000 H   0  0  0  0  0  0  0  0  0  0  0  0
    4.2944    4.2697    0.0000 H   0  0  0  0  0  0  0  0  0  0  0  0
    6.4289    6.6496    0.0000 H   0  0  0  0  0  0  0  0  0  0  0  0
    5.5629    6.7868    0.0000 H   0  0  0  0  0  0  0  0  0  0  0  0
    5.4257    5.9208    0.0000 H   0  0  0  0  0  0  0  0  0  0  0  0
    1.6900   -0.2483    0.0000 H   0  0  0  0  0  0  0  0  0  0  0  0
    1.4631   -1.0952    0.0000 H   0  0  0  0  0  0  0  0  0  0  0  0
    2.3100   -1.3222    0.0000 H   0  0  0  0  0  0  0  0  0  0  0  0
    7.4422   -6.2852    0.0000 H   0  0  0  0  0  0  0  0  0  0  0  0
    8.0622   -6.9052    0.0000 H   0  0  0  0  0  0  0  0  0  0  0  0
    8.6822   -6.2852    0.0000 H   0  0  0  0  0  0  0  0  0  0  0  0
   10.3503   -4.3222    0.0000 H   0  0  0  0  0  0  0  0  0  0  0  0
   11.1972   -4.0952    0.0000 H   0  0  0  0  0  0  0  0  0  0  0  0
   10.9703   -3.2483    0.0000 H   0  0  0  0  0  0  0  0  0  0  0  0
    3.4860    3.7148    0.0000 H   0  0  0  0  0  0  0  0  0  0  0  0
    2.8660    4.3348    0.0000 H   0  0  0  0  0  0  0  0  0  0  0  0
    2.2460    3.7148    0.0000 H   0  0  0  0  0  0  0  0  0  0  0  0
   10.4142    0.7148    0.0000 H   0  0  0  0  0  0  0  0  0  0  0  0
    9.7942    1.3348    0.0000 H   0  0  0  0  0  0  0  0  0  0  0  0
    9.1742    0.7148    0.0000 H   0  0  0  0  0  0  0  0  0  0  0  0
 23  1  1  1  0  0  0
 29  1  1  1  0  0  0
  2 24  1  0  0  0  0
  2 27  1  0  0  0  0
  3 27  1  0  0  0  0
  3 32  1  0  0  0  0
  4 29  1  0  0  0  0
  4 33  1  0  0  0  0
 28  5  1  1  0  0  0
 34  5  1  1  0  0  0
 25  6  1  6  0  0  0
  6 41  1  0  0  0  0
 26  7  1  1  0  0  0
  7 42  1  0  0  0  0
  8 34  1  0  0  0  0
  8 38  1  0  0  0  0
 31  9  1  6  0  0  0
  9 43  1  0  0  0  0
 30 10  1  1  0  0  0
 10 74  1  0  0  0  0
 36 11  1  6  0  0  0
 11 46  1  0  0  0  0
 35 12  1  6  0  0  0
 12 77  1  0  0  0  0
 37 13  1  1  0  0  0
 13 47  1  0  0  0  0
 14 39  1  0  0  0  0
 14 49  1  0  0  0  0
 15 40  1  0  0  0  0
 15 51  1  0  0  0  0
 16 41  2  0  0  0  0
 17 42  2  0  0  0  0
 18 43  2  0  0  0  0
 19 46  2  0  0  0  0
 20 47  2  0  0  0  0
 21 49  2  0  0  0  0
 22 51  2  0  0  0  0
 23 24  1  0  0  0  0
 23 25  1  0  0  0  0
 23 55  1  0  0  0  0
 24 32  1  0  0  0  0
 24 56  1  1  0  0  0
 25 26  1  0  0  0  0
 25 57  1  0  0  0  0
 26 27  1  0  0  0  0
 26 58  1  0  0  0  0
 27 59  1  6  0  0  0
 28 30  1  0  0  0  0
 28 31  1  0  0  0  0
 28 60  1  0  0  0  0
 29 30  1  0  0  0  0
 29 61  1  0  0  0  0
 30 62  1  0  0  0  0
 31 33  1  0  0  0  0
 31 63  1  0  0  0  0
 32 64  1  0  0  0  0
 32 65  1  0  0  0  0
 33 39  1  1  0  0  0
 33 66  1  0  0  0  0
 34 35  1  0  0  0  0
 34 67  1  0  0  0  0
 35 36  1  0  0  0  0
 35 68  1  0  0  0  0
 36 37  1  0  0  0  0
 36 69  1  0  0  0  0
 37 38  1  0  0  0  0
 37 70  1  0  0  0  0
 38 40  1  6  0  0  0
 38 71  1  0  0  0  0
 39 72  1  0  0  0  0
 39 73  1  0  0  0  0
 40 75  1  0  0  0  0
 40 76  1  0  0  0  0
 41 44  1  0  0  0  0
 42 45  1  0  0  0  0
 43 48  1  0  0  0  0
 44 78  1  0  0  0  0
 44 79  1  0  0  0  0
 44 80  1  0  0  0  0
 45 81  1  0  0  0  0
 45 82  1  0  0  0  0
 45 83  1  0  0  0  0
 46 50  1  0  0  0  0
 47 52  1  0  0  0  0
 48 84  1  0  0  0  0
 48 85  1  0  0  0  0
 48 86  1  0  0  0  0
 49 53  1  0  0  0  0
 50 87  1  0  0  0  0
 50 88  1  0  0  0  0
 50 89  1  0  0  0  0
 51 54  1  0  0  0  0
 52 90  1  0  0  0  0
 52 91  1  0  0  0  0
 52 92  1  0  0  0  0
 53 93  1  0  0  0  0
 53 94  1  0  0  0  0
 53 95  1  0  0  0  0
 54 96  1  0  0  0  0
 54 97  1  0  0  0  0
 54 98  1  0  0  0  0
M  END
> <PUBCHEM_COMPOUND_CID>
10373069

> <PUBCHEM_COMPOUND_CANONICALIZED>
1

> <PUBCHEM_CACTVS_COMPLEXITY>
1400

> <PUBCHEM_CACTVS_HBOND_ACCEPTOR>
22

> <PUBCHEM_CACTVS_HBOND_DONOR>
2

> <PUBCHEM_CACTVS_ROTATABLE_BOND>
20

> <PUBCHEM_CACTVS_SUBSKEYS>
AAADcfB8PgAAAAAAAAAAAAAAAAAAASAAAAAkSJAABIAAAAAAAAAAGgAACAAACBSwgAMCCAAABgAIAACQCAAAAAAAAAAAAAAAAAAREAIAAAAiQAAFAAAHAAHAYAwAAAAAAAAAAAAAAAAAAAAAAAAAAAAAAA==

> <PUBCHEM_IUPAC_OPENEYE_NAME>
[(2R,3R,4R,5S,6S)-3-acetoxy-4-[(2R,3S,4R,5R,6R)-4,5-diacetoxy-6-(acetoxymethyl)-3-hydroxy-tetrahydropyran-2-yl]oxy-6-[[(1R,2R,3S,4R,5R)-3,4-diacetoxy-6,8-dioxabicyclo[3.2.1]octan-2-yl]oxy]-5-hydroxy-tetrahydropyran-2-yl]methyl acetate

> <PUBCHEM_IUPAC_CAS_NAME>
acetic acid [(2R,3R,4R,5S,6S)-3-acetyloxy-4-[[(2R,3S,4R,5R,6R)-4,5-diacetyloxy-6-(acetyloxymethyl)-3-hydroxy-2-oxanyl]oxy]-6-[[(1R,2R,3S,4R,5R)-3,4-diacetyloxy-6,8-dioxabicyclo[3.2.1]octan-2-yl]oxy]-5-hydroxy-2-oxanyl]methyl ester

> <PUBCHEM_IUPAC_NAME_MARKUP>
[(2<I>R</I>,3<I>R</I>,4<I>R</I>,5<I>S</I>,6<I>S</I>)-3-acetyloxy-4-[(2<I>R</I>,3<I>S</I>,4<I>R</I>,5<I>R</I>,6<I>R</I>)-4,5-diacetyloxy-6-(acetyloxymethyl)-3-hydroxyoxan-2-yl]oxy-6-[[(1<I>R</I>,2<I>R</I>,3<I>S</I>,4<I>R</I>,5<I>R</I>)-3,4-diacetyloxy-6,8-dioxabicyclo[3.2.1]octan-2-yl]oxy]-5-hydroxyoxan-2-yl]methyl acetate

> <PUBCHEM_IUPAC_NAME>
[(2R,3R,4R,5S,6S)-3-acetyloxy-4-[(2R,3S,4R,5R,6R)-4,5-diacetyloxy-6-(acetyloxymethyl)-3-hydroxyoxan-2-yl]oxy-6-[[(1R,2R,3S,4R,5R)-3,4-diacetyloxy-6,8-dioxabicyclo[3.2.1]octan-2-yl]oxy]-5-hydroxyoxan-2-yl]methyl acetate

> <PUBCHEM_IUPAC_SYSTEMATIC_NAME>
[(2R,3R,4R,5S,6S)-3-acetyloxy-4-[(2R,3S,4R,5R,6R)-4,5-diacetyloxy-6-(acetyloxymethyl)-3-oxidanyl-oxan-2-yl]oxy-6-[[(1R,2R,3S,4R,5R)-3,4-diacetyloxy-6,8-dioxabicyclo[3.2.1]octan-2-yl]oxy]-5-oxidanyl-oxan-2-yl]methyl ethanoate

> <PUBCHEM_IUPAC_TRADITIONAL_NAME>
acetic acid [(2R,3R,4R,5S,6S)-3-acetoxy-4-[(2R,3S,4R,5R,6R)-4,5-diacetoxy-6-(acetoxymethyl)-3-hydroxy-tetrahydropyran-2-yl]oxy-6-[[(1R,2R,3S,4R,5R)-3,4-diacetoxy-6,8-dioxabicyclo[3.2.1]octan-2-yl]oxy]-5-hydroxy-tetrahydropyran-2-yl]methyl ester

> <PUBCHEM_IUPAC_INCHI>
InChI=1S/C32H44O22/c1-11(33)42-8-18-23(45-13(3)35)26(47-15(5)37)21(40)31(51-18)54-27-22(41)30(50-19(9-43-12(2)34)24(27)46-14(4)36)53-25-20-10-44-32(52-20)29(49-17(7)39)28(25)48-16(6)38/h18-32,40-41H,8-10H2,1-7H3/t18-,19-,20-,21+,22+,23-,24-,25-,26-,27-,28+,29-,30+,31-,32-/m1/s1

> <PUBCHEM_IUPAC_INCHIKEY>
PYFMTJGYYASFKB-UEVXMPEZSA-N

> <PUBCHEM_XLOGP3_AA>
-2.4

> <PUBCHEM_EXACT_MASS>
780.23242303

> <PUBCHEM_MOLECULAR_FORMULA>
C32H44O22

> <PUBCHEM_MOLECULAR_WEIGHT>
780.7

> <PUBCHEM_OPENEYE_CAN_SMILES>
CC(=O)OCC1C(C(C(C(O1)OC2C3COC(O3)C(C2OC(=O)C)OC(=O)C)O)OC4C(C(C(C(O4)COC(=O)C)OC(=O)C)OC(=O)C)O)OC(=O)C

> <PUBCHEM_OPENEYE_ISO_SMILES>
CC(=O)OC[C@@H]1[C@H]([C@@H]([C@@H]([C@@H](O1)O[C@@H]2[C@H]3CO[C@H](O3)[C@@H]([C@H]2OC(=O)C)OC(=O)C)O)O[C@@H]4[C@H]([C@H]([C@@H]([C@H](O4)COC(=O)C)OC(=O)C)OC(=O)C)O)OC(=O)C

> <PUBCHEM_CACTVS_TPSA>
280

> <PUBCHEM_MONOISOTOPIC_WEIGHT>
780.23242303

> <PUBCHEM_TOTAL_CHARGE>
0

> <PUBCHEM_HEAVY_ATOM_COUNT>
54

> <PUBCHEM_ATOM_DEF_STEREO_COUNT>
15

> <PUBCHEM_ATOM_UDEF_STEREO_COUNT>
0

> <PUBCHEM_BOND_DEF_STEREO_COUNT>
0

> <PUBCHEM_BOND_UDEF_STEREO_COUNT>
0

> <PUBCHEM_ISOTOPIC_ATOM_COUNT>
0

> <PUBCHEM_COMPONENT_COUNT>
1

> <PUBCHEM_CACTVS_TAUTO_COUNT>
-1

> <PUBCHEM_COORDINATE_TYPE>
1
5
255

> <PUBCHEM_BONDANNOTATIONS>
23  1  5
29  1  5
30  10  5
36  11  6
35  12  6
37  13  5
24  56  5
27  59  6
33  39  5
38  40  6
28  5  5
34  5  5
25  6  6
26  7  5
31  9  6

$$$$
