 
  -OEChem-10192103372D

 71 72  0     1  0  0  0  0  0999 V2000
    8.0622   -0.7500    0.0000 S   0  0  0  0  0  0  0  0  0  0  0  0
    6.3301   -0.7500    0.0000 O   0  0  0  0  0  0  0  0  0  0  0  0
    7.1962    0.7500    0.0000 O   0  0  0  0  0  0  0  0  0  0  0  0
    8.0622   -2.7500    0.0000 O   0  0  0  0  0  0  0  0  0  0  0  0
    8.0622    3.2500    0.0000 O   0  0  0  0  0  0  0  0  0  0  0  0
    3.7320   -1.2500    0.0000 O   0  0  0  0  0  0  0  0  0  0  0  0
    6.3301    3.2500    0.0000 O   0  0  0  0  0  0  0  0  0  0  0  0
    7.1962   -4.2500    0.0000 O   0  0  0  0  0  0  0  0  0  0  0  0
    9.7942    3.2500    0.0000 O   0  0  0  0  0  0  0  0  0  0  0  0
    2.8660    0.2500    0.0000 O   0  0  0  0  0  0  0  0  0  0  0  0
    4.5981    3.2500    0.0000 O   0  0  0  0  0  0  0  0  0  0  0  0
    6.3301   -3.7500    0.0000 N   0  0  0  0  0  0  0  0  0  0  0  0
    9.7942    2.2500    0.0000 N   0  0  0  0  0  0  0  0  0  0  0  0
    5.4641   -4.2500    0.0000 N   0  3  0  0  0  0  0  0  0  0  0  0
   10.6603    1.7500    0.0000 N   0  3  0  0  0  0  0  0  0  0  0  0
    4.5981   -4.7500    0.0000 N   0  5  0  0  0  0  0  0  0  0  0  0
   11.5263    1.2500    0.0000 N   0  5  0  0  0  0  0  0  0  0  0  0
    8.9282    0.7500    0.0000 C   0  0  1  0  0  0  0  0  0  0  0  0
    5.4641   -2.2500    0.0000 C   0  0  2  0  0  0  0  0  0  0  0  0
    6.3301   -2.7500    0.0000 C   0  0  1  0  0  0  0  0  0  0  0  0
    8.0622    0.2500    0.0000 C   0  0  2  0  0  0  0  0  0  0  0  0
    7.1962   -2.2500    0.0000 C   0  0  3  0  0  0  0  0  0  0  0  0
    8.9282    1.7500    0.0000 C   0  0  3  0  0  0  0  0  0  0  0  0
    7.1962   -1.2500    0.0000 C   0  0  2  0  0  0  0  0  0  0  0  0
    5.4641   -1.2500    0.0000 C   0  0  3  0  0  0  0  0  0  0  0  0
    8.0622    2.2500    0.0000 C   0  0  2  0  0  0  0  0  0  0  0  0
    7.1962    1.7500    0.0000 C   0  0  3  0  0  0  0  0  0  0  0  0
    9.7942    0.2500    0.0000 C   0  0  0  0  0  0  0  0  0  0  0  0
    4.5981   -2.7500    0.0000 C   0  0  0  0  0  0  0  0  0  0  0  0
    4.5981   -0.7500    0.0000 C   0  0  0  0  0  0  0  0  0  0  0  0
    6.3301    2.2500    0.0000 C   0  0  0  0  0  0  0  0  0  0  0  0
    8.0622   -3.7500    0.0000 C   0  0  0  0  0  0  0  0  0  0  0  0
    8.9282    3.7500    0.0000 C   0  0  0  0  0  0  0  0  0  0  0  0
    2.8660   -0.7500    0.0000 C   0  0  0  0  0  0  0  0  0  0  0  0
    8.9282   -4.2500    0.0000 C   0  0  0  0  0  0  0  0  0  0  0  0
    8.9282    4.7500    0.0000 C   0  0  0  0  0  0  0  0  0  0  0  0
    5.4641    3.7500    0.0000 C   0  0  0  0  0  0  0  0  0  0  0  0
    2.0000   -1.2500    0.0000 C   0  0  0  0  0  0  0  0  0  0  0  0
    5.4641    4.7500    0.0000 C   0  0  0  0  0  0  0  0  0  0  0  0
    8.9282    0.1300    0.0000 H   0  0  0  0  0  0  0  0  0  0  0  0
    4.9272   -1.9400    0.0000 H   0  0  0  0  0  0  0  0  0  0  0  0
    5.7932   -3.0600    0.0000 H   0  0  0  0  0  0  0  0  0  0  0  0
    7.5252   -0.0600    0.0000 H   0  0  0  0  0  0  0  0  0  0  0  0
    7.1962   -2.8700    0.0000 H   0  0  0  0  0  0  0  0  0  0  0  0
    9.4651    1.4400    0.0000 H   0  0  0  0  0  0  0  0  0  0  0  0
    7.7331   -1.5600    0.0000 H   0  0  0  0  0  0  0  0  0  0  0  0
    5.4641   -0.6300    0.0000 H   0  0  0  0  0  0  0  0  0  0  0  0
    7.5252    2.5600    0.0000 H   0  0  0  0  0  0  0  0  0  0  0  0
    6.6592    1.4400    0.0000 H   0  0  0  0  0  0  0  0  0  0  0  0
    9.4842   -0.2869    0.0000 H   0  0  0  0  0  0  0  0  0  0  0  0
   10.3312   -0.0600    0.0000 H   0  0  0  0  0  0  0  0  0  0  0  0
   10.1042    0.7869    0.0000 H   0  0  0  0  0  0  0  0  0  0  0  0
    4.2881   -2.2131    0.0000 H   0  0  0  0  0  0  0  0  0  0  0  0
    4.0611   -3.0600    0.0000 H   0  0  0  0  0  0  0  0  0  0  0  0
    4.9081   -3.2869    0.0000 H   0  0  0  0  0  0  0  0  0  0  0  0
    4.9966   -0.2751    0.0000 H   0  0  0  0  0  0  0  0  0  0  0  0
    4.1996   -0.2751    0.0000 H   0  0  0  0  0  0  0  0  0  0  0  0
    5.7196    2.3577    0.0000 H   0  0  0  0  0  0  0  0  0  0  0  0
    6.1181    1.6674    0.0000 H   0  0  0  0  0  0  0  0  0  0  0  0
    8.6182   -4.7869    0.0000 H   0  0  0  0  0  0  0  0  0  0  0  0
    9.4651   -4.5600    0.0000 H   0  0  0  0  0  0  0  0  0  0  0  0
    9.2382   -3.7131    0.0000 H   0  0  0  0  0  0  0  0  0  0  0  0
    9.5482    4.7500    0.0000 H   0  0  0  0  0  0  0  0  0  0  0  0
    8.9282    5.3700    0.0000 H   0  0  0  0  0  0  0  0  0  0  0  0
    8.3082    4.7500    0.0000 H   0  0  0  0  0  0  0  0  0  0  0  0
    1.6900   -0.7131    0.0000 H   0  0  0  0  0  0  0  0  0  0  0  0
    1.4631   -1.5600    0.0000 H   0  0  0  0  0  0  0  0  0  0  0  0
    2.3100   -1.7869    0.0000 H   0  0  0  0  0  0  0  0  0  0  0  0
    6.0841    4.7500    0.0000 H   0  0  0  0  0  0  0  0  0  0  0  0
    5.4641    5.3700    0.0000 H   0  0  0  0  0  0  0  0  0  0  0  0
    4.8441    4.7500    0.0000 H   0  0  0  0  0  0  0  0  0  0  0  0
 21  1  1  6  0  0  0
 24  1  1  1  0  0  0
  2 24  1  0  0  0  0
  2 25  1  0  0  0  0
  3 21  1  0  0  0  0
  3 27  1  0  0  0  0
  4 22  1  0  0  0  0
  4 32  1  0  0  0  0
 26  5  1  6  0  0  0
  5 33  1  0  0  0  0
  6 30  1  0  0  0  0
  6 34  1  0  0  0  0
  7 31  1  0  0  0  0
  7 37  1  0  0  0  0
  8 32  2  0  0  0  0
  9 33  2  0  0  0  0
 10 34  2  0  0  0  0
 11 37  2  0  0  0  0
 12 14  2  0  0  0  0
 20 12  1  1  0  0  0
 13 15  2  0  0  0  0
 13 23  1  0  0  0  0
 14 16  2  0  0  0  0
 15 17  2  0  0  0  0
 18 21  1  0  0  0  0
 18 23  1  0  0  0  0
 18 28  1  1  0  0  0
 18 40  1  0  0  0  0
 19 20  1  0  0  0  0
 19 25  1  0  0  0  0
 19 29  1  1  0  0  0
 19 41  1  0  0  0  0
 20 22  1  0  0  0  0
 20 42  1  0  0  0  0
 21 43  1  0  0  0  0
 22 24  1  0  0  0  0
 22 44  1  0  0  0  0
 23 26  1  0  0  0  0
 23 45  1  0  0  0  0
 24 46  1  0  0  0  0
 25 30  1  0  0  0  0
 25 47  1  0  0  0  0
 26 27  1  0  0  0  0
 26 48  1  0  0  0  0
 27 31  1  0  0  0  0
 27 49  1  0  0  0  0
 28 50  1  0  0  0  0
 28 51  1  0  0  0  0
 28 52  1  0  0  0  0
 29 53  1  0  0  0  0
 29 54  1  0  0  0  0
 29 55  1  0  0  0  0
 30 56  1  0  0  0  0
 30 57  1  0  0  0  0
 31 58  1  0  0  0  0
 31 59  1  0  0  0  0
 32 35  1  0  0  0  0
 33 36  1  0  0  0  0
 34 38  1  0  0  0  0
 35 60  1  0  0  0  0
 35 61  1  0  0  0  0
 35 62  1  0  0  0  0
 36 63  1  0  0  0  0
 36 64  1  0  0  0  0
 36 65  1  0  0  0  0
 37 39  1  0  0  0  0
 38 66  1  0  0  0  0
 38 67  1  0  0  0  0
 38 68  1  0  0  0  0
 39 69  1  0  0  0  0
 39 70  1  0  0  0  0
 39 71  1  0  0  0  0
M  CHG  4  14   1  15   1  16  -1  17  -1
M  END
> <PUBCHEM_COMPOUND_CID>
126748984

> <PUBCHEM_COMPOUND_CANONICALIZED>
1

> <PUBCHEM_CACTVS_COMPLEXITY>
1020

> <PUBCHEM_CACTVS_HBOND_ACCEPTOR>
15

> <PUBCHEM_CACTVS_HBOND_DONOR>
0

> <PUBCHEM_CACTVS_ROTATABLE_BOND>
14

> <PUBCHEM_CACTVS_SUBSKEYS>
AAADcfB7vABAAAAAAAAAAAAAAAAAAAAAAAAkSAAAAAAAAAAAAAAAHgQIAAAADTzlwAaCCAAABAgKAACQCAAAAAAAABAAAAAAAAADAAIggAADAAAHAAAiAAHgYBwOAAAAAAAAAAAAAAAAAAAAAAAAAAAAAA==

> <PUBCHEM_IUPAC_OPENEYE_NAME>
[(3R,4S,6S)-5-acetoxy-6-[(2S,3R,5R)-5-acetoxy-6-(acetoxymethyl)-4-azido-3-methyl-tetrahydropyran-2-yl]sulfanyl-4-azido-3-methyl-tetrahydropyran-2-yl]methyl acetate

> <PUBCHEM_IUPAC_CAS_NAME>
acetic acid [(3R,4S,6S)-5-acetyloxy-6-[[(2S,3R,5R)-5-acetyloxy-6-(acetyloxymethyl)-4-azido-3-methyl-2-oxanyl]thio]-4-azido-3-methyl-2-oxanyl]methyl ester

> <PUBCHEM_IUPAC_NAME_MARKUP>
[(3<I>R</I>,4<I>S</I>,6<I>S</I>)-5-acetyloxy-6-[(2<I>S</I>,3<I>R</I>,5<I>R</I>)-5-acetyloxy-6-(acetyloxymethyl)-4-azido-3-methyloxan-2-yl]sulfanyl-4-azido-3-methyloxan-2-yl]methyl acetate

> <PUBCHEM_IUPAC_NAME>
[(3R,4S,6S)-5-acetyloxy-6-[(2S,3R,5R)-5-acetyloxy-6-(acetyloxymethyl)-4-azido-3-methyloxan-2-yl]sulfanyl-4-azido-3-methyloxan-2-yl]methyl acetate

> <PUBCHEM_IUPAC_SYSTEMATIC_NAME>
[(3R,4S,6S)-5-acetyloxy-6-[(2S,3R,5R)-5-acetyloxy-6-(acetyloxymethyl)-4-azido-3-methyl-oxan-2-yl]sulfanyl-4-azido-3-methyl-oxan-2-yl]methyl ethanoate

> <PUBCHEM_IUPAC_TRADITIONAL_NAME>
acetic acid [(3R,4S,6S)-5-acetoxy-6-[[(2S,3R,5R)-5-acetoxy-6-(acetoxymethyl)-4-azido-3-methyl-tetrahydropyran-2-yl]thio]-4-azido-3-methyl-tetrahydropyran-2-yl]methyl ester

> <PUBCHEM_IUPAC_INCHI>
InChI=1S/C22H32N6O10S/c1-9-15(7-33-11(3)29)37-22(20(36-14(6)32)17(9)25-27-23)39-21-10(2)18(26-28-24)19(35-13(5)31)16(38-21)8-34-12(4)30/h9-10,15-22H,7-8H2,1-6H3/t9-,10+,15?,16?,17-,18?,19-,20?,21-,22-/m0/s1

> <PUBCHEM_IUPAC_INCHIKEY>
YDSCGJRBGORJTL-CBVRKCPBSA-N

> <PUBCHEM_XLOGP3_AA>
3.7

> <PUBCHEM_EXACT_MASS>
572.19006241

> <PUBCHEM_MOLECULAR_FORMULA>
C22H32N6O10S

> <PUBCHEM_MOLECULAR_WEIGHT>
572.6

> <PUBCHEM_OPENEYE_CAN_SMILES>
CC1C(OC(C(C1N=[N+]=[N-])OC(=O)C)SC2C(C(C(C(O2)COC(=O)C)OC(=O)C)N=[N+]=[N-])C)COC(=O)C

> <PUBCHEM_OPENEYE_ISO_SMILES>
C[C@@H]1[C@@H](C([C@@H](OC1COC(=O)C)S[C@H]2[C@@H](C([C@H](C(O2)COC(=O)C)OC(=O)C)N=[N+]=[N-])C)OC(=O)C)N=[N+]=[N-]

> <PUBCHEM_CACTVS_TPSA>
178

> <PUBCHEM_MONOISOTOPIC_WEIGHT>
572.19006241

> <PUBCHEM_TOTAL_CHARGE>
0

> <PUBCHEM_HEAVY_ATOM_COUNT>
39

> <PUBCHEM_ATOM_DEF_STEREO_COUNT>
6

> <PUBCHEM_ATOM_UDEF_STEREO_COUNT>
4

> <PUBCHEM_BOND_DEF_STEREO_COUNT>
0

> <PUBCHEM_BOND_UDEF_STEREO_COUNT>
0

> <PUBCHEM_ISOTOPIC_ATOM_COUNT>
0

> <PUBCHEM_COMPONENT_COUNT>
1

> <PUBCHEM_CACTVS_TAUTO_COUNT>
-1

> <PUBCHEM_COORDINATE_TYPE>
1
5
255

> <PUBCHEM_BONDANNOTATIONS>
21  1  6
24  1  5
20  12  5
23  13  3
18  28  5
19  29  5
25  30  3
27  31  3
22  4  3
26  5  6

$$$$
