 
  -OEChem-10192103382D

 56 57  0     1  0  0  0  0  0999 V2000
    5.1261   -2.7888    0.0000 O   0  0  0  0  0  0  0  0  0  0  0  0
    3.2601    2.7888    0.0000 O   0  0  0  0  0  0  0  0  0  0  0  0
    6.3862   -1.5288    0.0000 O   0  0  0  0  0  0  0  0  0  0  0  0
    2.0000    1.5288    0.0000 O   0  0  0  0  0  0  0  0  0  0  0  0
    3.5383   -3.5979    0.0000 O   0  0  0  0  0  0  0  0  0  0  0  0
    4.8479    3.5979    0.0000 O   0  0  0  0  0  0  0  0  0  0  0  0
   11.5543   -1.2500    0.0000 O   0  0  0  0  0  0  0  0  0  0  0  0
    4.6261   -0.2500    0.0000 C   0  0  3  0  0  0  0  0  0  0  0  0
    3.7601    0.2500    0.0000 C   0  0  3  0  0  0  0  0  0  0  0  0
    4.6261   -1.2500    0.0000 C   0  0  3  0  0  0  0  0  0  0  0  0
    5.4921    0.2500    0.0000 C   0  0  0  0  0  0  0  0  0  0  0  0
    3.7601    1.2500    0.0000 C   0  0  3  0  0  0  0  0  0  0  0  0
    6.3582   -0.2500    0.0000 C   0  0  0  0  0  0  0  0  0  0  0  0
    3.8171   -1.8378    0.0000 C   0  0  0  0  0  0  0  0  0  0  0  0
    4.5691    1.8378    0.0000 C   0  0  0  0  0  0  0  0  0  0  0  0
    2.8940   -0.2500    0.0000 C   0  0  0  0  0  0  0  0  0  0  0  0
    5.4351   -1.8378    0.0000 C   0  0  0  0  0  0  0  0  0  0  0  0
    7.2242    0.2500    0.0000 C   0  0  0  0  0  0  0  0  0  0  0  0
    2.9511    1.8378    0.0000 C   0  0  0  0  0  0  0  0  0  0  0  0
    4.1261   -2.7888    0.0000 C   0  0  0  0  0  0  0  0  0  0  0  0
    8.0902   -0.2500    0.0000 C   0  0  0  0  0  0  0  0  0  0  0  0
    4.2601    2.7888    0.0000 C   0  0  0  0  0  0  0  0  0  0  0  0
    8.9562    0.2500    0.0000 C   0  0  0  0  0  0  0  0  0  0  0  0
    2.0280    0.2500    0.0000 C   0  0  0  0  0  0  0  0  0  0  0  0
    9.8222   -0.2500    0.0000 C   0  0  0  0  0  0  0  0  0  0  0  0
   10.6883    0.2500    0.0000 C   0  0  0  0  0  0  0  0  0  0  0  0
   11.5543   -0.2500    0.0000 C   0  0  0  0  0  0  0  0  0  0  0  0
   12.4203    0.2500    0.0000 C   0  0  0  0  0  0  0  0  0  0  0  0
    5.1630   -0.5600    0.0000 H   0  0  0  0  0  0  0  0  0  0  0  0
    3.2231    0.5600    0.0000 H   0  0  0  0  0  0  0  0  0  0  0  0
    4.0737   -0.9685    0.0000 H   0  0  0  0  0  0  0  0  0  0  0  0
    5.8906    0.7249    0.0000 H   0  0  0  0  0  0  0  0  0  0  0  0
    5.0936    0.7249    0.0000 H   0  0  0  0  0  0  0  0  0  0  0  0
    4.3125    0.9685    0.0000 H   0  0  0  0  0  0  0  0  0  0  0  0
    5.9596   -0.7249    0.0000 H   0  0  0  0  0  0  0  0  0  0  0  0
    6.7567   -0.7249    0.0000 H   0  0  0  0  0  0  0  0  0  0  0  0
    3.5071   -1.3008    0.0000 H   0  0  0  0  0  0  0  0  0  0  0  0
    3.2507   -2.0900    0.0000 H   0  0  0  0  0  0  0  0  0  0  0  0
    4.8791    1.3008    0.0000 H   0  0  0  0  0  0  0  0  0  0  0  0
    5.1355    2.0900    0.0000 H   0  0  0  0  0  0  0  0  0  0  0  0
    2.8940   -0.8700    0.0000 H   0  0  0  0  0  0  0  0  0  0  0  0
    7.6227    0.7249    0.0000 H   0  0  0  0  0  0  0  0  0  0  0  0
    6.8256    0.7249    0.0000 H   0  0  0  0  0  0  0  0  0  0  0  0
    7.6917   -0.7249    0.0000 H   0  0  0  0  0  0  0  0  0  0  0  0
    8.4887   -0.7249    0.0000 H   0  0  0  0  0  0  0  0  0  0  0  0
    9.3547    0.7249    0.0000 H   0  0  0  0  0  0  0  0  0  0  0  0
    8.5577    0.7249    0.0000 H   0  0  0  0  0  0  0  0  0  0  0  0
    2.0280    0.8700    0.0000 H   0  0  0  0  0  0  0  0  0  0  0  0
    1.4911   -0.0600    0.0000 H   0  0  0  0  0  0  0  0  0  0  0  0
    9.4237   -0.7249    0.0000 H   0  0  0  0  0  0  0  0  0  0  0  0
   10.2208   -0.7249    0.0000 H   0  0  0  0  0  0  0  0  0  0  0  0
   11.0868    0.7249    0.0000 H   0  0  0  0  0  0  0  0  0  0  0  0
   10.2897    0.7249    0.0000 H   0  0  0  0  0  0  0  0  0  0  0  0
   12.7303   -0.2869    0.0000 H   0  0  0  0  0  0  0  0  0  0  0  0
   12.9573    0.5600    0.0000 H   0  0  0  0  0  0  0  0  0  0  0  0
   12.1103    0.7869    0.0000 H   0  0  0  0  0  0  0  0  0  0  0  0
  1 17  1  0  0  0  0
  1 20  1  0  0  0  0
  2 19  1  0  0  0  0
  2 22  1  0  0  0  0
  3 17  2  0  0  0  0
  4 19  2  0  0  0  0
  5 20  2  0  0  0  0
  6 22  2  0  0  0  0
  7 27  2  0  0  0  0
  8  9  1  0  0  0  0
  8 10  1  0  0  0  0
  8 11  1  0  0  0  0
  8 29  1  0  0  0  0
  9 12  1  0  0  0  0
  9 16  1  0  0  0  0
  9 30  1  0  0  0  0
 10 14  1  0  0  0  0
 10 17  1  0  0  0  0
 10 31  1  0  0  0  0
 11 13  1  0  0  0  0
 11 32  1  0  0  0  0
 11 33  1  0  0  0  0
 12 15  1  0  0  0  0
 12 19  1  0  0  0  0
 12 34  1  0  0  0  0
 13 18  1  0  0  0  0
 13 35  1  0  0  0  0
 13 36  1  0  0  0  0
 14 20  1  0  0  0  0
 14 37  1  0  0  0  0
 14 38  1  0  0  0  0
 15 22  1  0  0  0  0
 15 39  1  0  0  0  0
 15 40  1  0  0  0  0
 16 24  2  0  0  0  0
 16 41  1  0  0  0  0
 18 21  1  0  0  0  0
 18 42  1  0  0  0  0
 18 43  1  0  0  0  0
 21 23  1  0  0  0  0
 21 44  1  0  0  0  0
 21 45  1  0  0  0  0
 23 25  1  0  0  0  0
 23 46  1  0  0  0  0
 23 47  1  0  0  0  0
 24 48  1  0  0  0  0
 24 49  1  0  0  0  0
 25 26  1  0  0  0  0
 25 50  1  0  0  0  0
 25 51  1  0  0  0  0
 26 27  1  0  0  0  0
 26 52  1  0  0  0  0
 26 53  1  0  0  0  0
 27 28  1  0  0  0  0
 28 54  1  0  0  0  0
 28 55  1  0  0  0  0
 28 56  1  0  0  0  0
M  END
> <PUBCHEM_COMPOUND_CID>
90440243

> <PUBCHEM_COMPOUND_CANONICALIZED>
1

> <PUBCHEM_CACTVS_COMPLEXITY>
651

> <PUBCHEM_CACTVS_HBOND_ACCEPTOR>
7

> <PUBCHEM_CACTVS_HBOND_DONOR>
0

> <PUBCHEM_CACTVS_ROTATABLE_BOND>
12

> <PUBCHEM_CACTVS_SUBSKEYS>
AAADceB4OAAAAAAAAAAAAAAAAAAAASJAAAAAAAAAAAAAAAAAAAAAGgAAAAAADQSAgAACCAAABACIAKDSCAAAAAAgAAAIAAEAAAgAABIAAQACAAAEgAAAAAGLyPCOgAAAAAAAAAAAAAAAAAAAAAAAAAAAAA==

> <PUBCHEM_IUPAC_OPENEYE_NAME>
3-[1-[1-(2,5-dioxotetrahydrofuran-3-yl)allyl]-9-oxo-decyl]tetrahydrofuran-2,5-dione

> <PUBCHEM_IUPAC_CAS_NAME>
3-[3-(2,5-dioxo-3-oxolanyl)-12-oxotridec-1-en-4-yl]oxolane-2,5-dione

> <PUBCHEM_IUPAC_NAME_MARKUP>
3-[3-(2,5-dioxooxolan-3-yl)-12-oxotridec-1-en-4-yl]oxolane-2,5-dione

> <PUBCHEM_IUPAC_NAME>
3-[3-(2,5-dioxooxolan-3-yl)-12-oxotridec-1-en-4-yl]oxolane-2,5-dione

> <PUBCHEM_IUPAC_SYSTEMATIC_NAME>
3-[3-[2,5-bis(oxidanylidene)oxolan-3-yl]-12-oxidanylidene-tridec-1-en-4-yl]oxolane-2,5-dione

> <PUBCHEM_IUPAC_TRADITIONAL_NAME>
3-[2-(2,5-diketotetrahydrofuran-3-yl)-1-(8-ketononyl)but-3-enyl]tetrahydrofuran-2,5-quinone

> <PUBCHEM_IUPAC_INCHI>
InChI=1S/C21H28O7/c1-3-14(16-11-18(23)27-20(16)25)15(17-12-19(24)28-21(17)26)10-8-6-4-5-7-9-13(2)22/h3,14-17H,1,4-12H2,2H3

> <PUBCHEM_IUPAC_INCHIKEY>
ZFZBDCVJGQVEIT-UHFFFAOYSA-N

> <PUBCHEM_XLOGP3_AA>
2.8

> <PUBCHEM_EXACT_MASS>
392.18350323

> <PUBCHEM_MOLECULAR_FORMULA>
C21H28O7

> <PUBCHEM_MOLECULAR_WEIGHT>
392.4

> <PUBCHEM_OPENEYE_CAN_SMILES>
CC(=O)CCCCCCCC(C1CC(=O)OC1=O)C(C=C)C2CC(=O)OC2=O

> <PUBCHEM_OPENEYE_ISO_SMILES>
CC(=O)CCCCCCCC(C1CC(=O)OC1=O)C(C=C)C2CC(=O)OC2=O

> <PUBCHEM_CACTVS_TPSA>
104

> <PUBCHEM_MONOISOTOPIC_WEIGHT>
392.18350323

> <PUBCHEM_TOTAL_CHARGE>
0

> <PUBCHEM_HEAVY_ATOM_COUNT>
28

> <PUBCHEM_ATOM_DEF_STEREO_COUNT>
0

> <PUBCHEM_ATOM_UDEF_STEREO_COUNT>
4

> <PUBCHEM_BOND_DEF_STEREO_COUNT>
0

> <PUBCHEM_BOND_UDEF_STEREO_COUNT>
0

> <PUBCHEM_ISOTOPIC_ATOM_COUNT>
0

> <PUBCHEM_COMPONENT_COUNT>
1

> <PUBCHEM_CACTVS_TAUTO_COUNT>
-1

> <PUBCHEM_COORDINATE_TYPE>
1
5
255

> <PUBCHEM_BONDANNOTATIONS>
10  14  3
12  15  3
8  11  3
9  16  3

$$$$
