 
  -OEChem-10192103542D

 43 43  0     0  0  0  0  0  0999 V2000
    5.0138    1.6550    0.0000 S   0  0  0  0  0  0  0  0  0  0  0  0
    2.9397    0.7153    0.0000 S   0  0  0  0  0  0  0  0  0  0  0  0
    6.3038    0.8581    0.0000 S   0  0  0  0  0  0  0  0  0  0  0  0
    6.4038   -1.2847    0.0000 S   0  0  0  0  0  0  0  0  0  0  0  0
    2.9397   -1.2847    0.0000 S   0  0  0  0  0  0  0  0  0  0  0  0
    4.6717   -2.2847    0.0000 S   0  0  0  0  0  0  0  0  0  0  0  0
    5.6566    0.8890    0.0000 O   0  0  0  0  0  0  0  0  0  0  0  0
    4.0741    1.9970    0.0000 O   0  0  0  0  0  0  0  0  0  0  0  0
    2.0000    0.3733    0.0000 O   0  0  0  0  0  0  0  0  0  0  0  0
    3.4397    1.5813    0.0000 O   0  0  0  0  0  0  0  0  0  0  0  0
    5.6610    1.6241    0.0000 O   0  0  0  0  0  0  0  0  0  0  0  0
    7.2435    0.5161    0.0000 O   0  0  0  0  0  0  0  0  0  0  0  0
    5.9038   -2.1507    0.0000 O   0  0  0  0  0  0  0  0  0  0  0  0
    6.9038   -0.4187    0.0000 O   0  0  0  0  0  0  0  0  0  0  0  0
    3.4397   -2.1507    0.0000 O   0  0  0  0  0  0  0  0  0  0  0  0
    2.0000   -0.9427    0.0000 O   0  0  0  0  0  0  0  0  0  0  0  0
    4.6717    0.7153    0.0000 C   0  0  0  0  0  0  0  0  0  0  0  0
    3.8057    0.2153    0.0000 C   0  0  0  0  0  0  0  0  0  0  0  0
    5.5378    0.2153    0.0000 C   0  0  0  0  0  0  0  0  0  0  0  0
    5.5378   -0.7847    0.0000 C   0  0  0  0  0  0  0  0  0  0  0  0
    3.8057   -0.7847    0.0000 C   0  0  0  0  0  0  0  0  0  0  0  0
    4.6717   -1.2847    0.0000 C   0  0  0  0  0  0  0  0  0  0  0  0
    5.3558    2.5947    0.0000 C   0  0  0  0  0  0  0  0  0  0  0  0
    2.0737    1.2153    0.0000 C   0  0  0  0  0  0  0  0  0  0  0  0
    7.0699    1.5009    0.0000 C   0  0  0  0  0  0  0  0  0  0  0  0
    7.2698   -1.7847    0.0000 C   0  0  0  0  0  0  0  0  0  0  0  0
    2.0737   -1.7847    0.0000 C   0  0  0  0  0  0  0  0  0  0  0  0
    5.9384    2.3826    0.0000 H   0  0  0  0  0  0  0  0  0  0  0  0
    5.5678    3.1773    0.0000 H   0  0  0  0  0  0  0  0  0  0  0  0
    4.7732    2.8068    0.0000 H   0  0  0  0  0  0  0  0  0  0  0  0
    2.3837    1.7522    0.0000 H   0  0  0  0  0  0  0  0  0  0  0  0
    1.5367    1.5253    0.0000 H   0  0  0  0  0  0  0  0  0  0  0  0
    1.7637    0.6784    0.0000 H   0  0  0  0  0  0  0  0  0  0  0  0
    7.4684    1.0259    0.0000 H   0  0  0  0  0  0  0  0  0  0  0  0
    7.5448    1.8994    0.0000 H   0  0  0  0  0  0  0  0  0  0  0  0
    6.6713    1.9758    0.0000 H   0  0  0  0  0  0  0  0  0  0  0  0
    6.9598   -2.3216    0.0000 H   0  0  0  0  0  0  0  0  0  0  0  0
    7.8068   -2.0947    0.0000 H   0  0  0  0  0  0  0  0  0  0  0  0
    7.5798   -1.2478    0.0000 H   0  0  0  0  0  0  0  0  0  0  0  0
    1.7637   -1.2478    0.0000 H   0  0  0  0  0  0  0  0  0  0  0  0
    1.5367   -2.0947    0.0000 H   0  0  0  0  0  0  0  0  0  0  0  0
    2.3837   -2.3216    0.0000 H   0  0  0  0  0  0  0  0  0  0  0  0
    4.1348   -2.5947    0.0000 H   0  0  0  0  0  0  0  0  0  0  0  0
  1  7  2  0  0  0  0
  1  8  2  0  0  0  0
  1 17  1  0  0  0  0
  1 23  1  0  0  0  0
  2  9  2  0  0  0  0
  2 10  2  0  0  0  0
  2 18  1  0  0  0  0
  2 24  1  0  0  0  0
  3 11  2  0  0  0  0
  3 12  2  0  0  0  0
  3 19  1  0  0  0  0
  3 25  1  0  0  0  0
  4 13  2  0  0  0  0
  4 14  2  0  0  0  0
  4 20  1  0  0  0  0
  4 26  1  0  0  0  0
  5 15  2  0  0  0  0
  5 16  2  0  0  0  0
  5 21  1  0  0  0  0
  5 27  1  0  0  0  0
  6 22  1  0  0  0  0
  6 43  1  0  0  0  0
 17 18  2  0  0  0  0
 17 19  1  0  0  0  0
 18 21  1  0  0  0  0
 19 20  2  0  0  0  0
 20 22  1  0  0  0  0
 21 22  2  0  0  0  0
 23 28  1  0  0  0  0
 23 29  1  0  0  0  0
 23 30  1  0  0  0  0
 24 31  1  0  0  0  0
 24 32  1  0  0  0  0
 24 33  1  0  0  0  0
 25 34  1  0  0  0  0
 25 35  1  0  0  0  0
 25 36  1  0  0  0  0
 26 37  1  0  0  0  0
 26 38  1  0  0  0  0
 26 39  1  0  0  0  0
 27 40  1  0  0  0  0
 27 41  1  0  0  0  0
 27 42  1  0  0  0  0
M  END
> <PUBCHEM_COMPOUND_CID>
18512492

> <PUBCHEM_COMPOUND_CANONICALIZED>
1

> <PUBCHEM_CACTVS_COMPLEXITY>
1020

> <PUBCHEM_CACTVS_HBOND_ACCEPTOR>
11

> <PUBCHEM_CACTVS_HBOND_DONOR>
1

> <PUBCHEM_CACTVS_ROTATABLE_BOND>
5

> <PUBCHEM_CACTVS_SUBSKEYS>
AAADceBwPABwAAAAAAAAAAAAAAAAAAAAAAAwAAAAAAAAAAABAAAAGAQAAAAACAAAUACCAYAAAA6AAABAAHBCAAAgCBAAiBAAAIgIICKgEBCAIAAggAAIiAcAAAAAAAgAAEAAAgAAEAAAgAAEAAAAAAAAAA==

> <PUBCHEM_IUPAC_OPENEYE_NAME>
2,3,4,5,6-pentakis(methylsulfonyl)benzenethiol

> <PUBCHEM_IUPAC_CAS_NAME>
2,3,4,5,6-pentakis(methylsulfonyl)benzenethiol

> <PUBCHEM_IUPAC_NAME_MARKUP>
2,3,4,5,6-pentakis(methylsulfonyl)benzenethiol

> <PUBCHEM_IUPAC_NAME>
2,3,4,5,6-pentakis(methylsulfonyl)benzenethiol

> <PUBCHEM_IUPAC_SYSTEMATIC_NAME>
2,3,4,5,6-pentakis(methylsulfonyl)benzenethiol

> <PUBCHEM_IUPAC_TRADITIONAL_NAME>
2,3,4,5,6-pentamesylbenzenethiol

> <PUBCHEM_IUPAC_INCHI>
InChI=1S/C11H16O10S6/c1-23(12,13)7-6(22)8(24(2,14)15)10(26(4,18)19)11(27(5,20)21)9(7)25(3,16)17/h22H,1-5H3

> <PUBCHEM_IUPAC_INCHIKEY>
RZVCTOIMFVJSGE-UHFFFAOYSA-N

> <PUBCHEM_XLOGP3_AA>
-1.7

> <PUBCHEM_EXACT_MASS>
499.90677374

> <PUBCHEM_MOLECULAR_FORMULA>
C11H16O10S6

> <PUBCHEM_MOLECULAR_WEIGHT>
500.6

> <PUBCHEM_OPENEYE_CAN_SMILES>
CS(=O)(=O)C1=C(C(=C(C(=C1S(=O)(=O)C)S(=O)(=O)C)S(=O)(=O)C)S(=O)(=O)C)S

> <PUBCHEM_OPENEYE_ISO_SMILES>
CS(=O)(=O)C1=C(C(=C(C(=C1S(=O)(=O)C)S(=O)(=O)C)S(=O)(=O)C)S(=O)(=O)C)S

> <PUBCHEM_CACTVS_TPSA>
214

> <PUBCHEM_MONOISOTOPIC_WEIGHT>
499.90677374

> <PUBCHEM_TOTAL_CHARGE>
0

> <PUBCHEM_HEAVY_ATOM_COUNT>
27

> <PUBCHEM_ATOM_DEF_STEREO_COUNT>
0

> <PUBCHEM_ATOM_UDEF_STEREO_COUNT>
0

> <PUBCHEM_BOND_DEF_STEREO_COUNT>
0

> <PUBCHEM_BOND_UDEF_STEREO_COUNT>
0

> <PUBCHEM_ISOTOPIC_ATOM_COUNT>
0

> <PUBCHEM_COMPONENT_COUNT>
1

> <PUBCHEM_CACTVS_TAUTO_COUNT>
-1

> <PUBCHEM_COORDINATE_TYPE>
1
5
255

> <PUBCHEM_BONDANNOTATIONS>
17  18  8
17  19  8
18  21  8
19  20  8
20  22  8
21  22  8

$$$$
