 
  -OEChem-10192104152D

 77 79  0     1  0  0  0  0  0999 V2000
    6.5737   -2.1310    0.0000 O   0  0  0  0  0  0  0  0  0  0  0  0
    8.3390    2.1310    0.0000 O   0  0  0  0  0  0  0  0  0  0  0  0
    8.7959   -3.8362    0.0000 O   0  0  0  0  0  0  0  0  0  0  0  0
    6.1168    3.8362    0.0000 O   0  0  0  0  0  0  0  0  0  0  0  0
   12.4558   -1.0279    0.0000 O   0  0  0  0  0  0  0  0  0  0  0  0
    2.4569    1.0279    0.0000 O   0  0  0  0  0  0  0  0  0  0  0  0
    7.9563   -1.2071    0.0000 C   0  0  3  0  0  0  0  0  0  0  0  0
    6.9563    1.2071    0.0000 C   0  0  3  0  0  0  0  0  0  0  0  0
    8.3390   -2.1310    0.0000 C   0  0  0  0  0  0  0  0  0  0  0  0
    9.3305   -2.2615    0.0000 C   0  0  3  0  0  0  0  0  0  0  0  0
    6.5737    2.1310    0.0000 C   0  0  0  0  0  0  0  0  0  0  0  0
    5.5822    2.2615    0.0000 C   0  0  3  0  0  0  0  0  0  0  0  0
    8.6634   -0.5000    0.0000 C   0  0  0  0  0  0  0  0  0  0  0  0
    6.2492    0.5000    0.0000 C   0  0  0  0  0  0  0  0  0  0  0  0
    8.6634    0.5000    0.0000 C   0  0  0  0  0  0  0  0  0  0  0  0
    6.2492   -0.5000    0.0000 C   0  0  0  0  0  0  0  0  0  0  0  0
    6.9563   -1.2071    0.0000 C   0  0  0  0  0  0  0  0  0  0  0  0
    7.9563    1.2071    0.0000 C   0  0  0  0  0  0  0  0  0  0  0  0
    9.8305   -1.3955    0.0000 C   0  0  0  0  0  0  0  0  0  0  0  0
    5.0822    1.3955    0.0000 C   0  0  0  0  0  0  0  0  0  0  0  0
    9.5893   -3.2274    0.0000 C   0  0  0  0  0  0  0  0  0  0  0  0
   10.7964   -1.1367    0.0000 C   0  0  0  0  0  0  0  0  0  0  0  0
   11.9212   -2.6026    0.0000 C   0  0  3  0  0  0  0  0  0  0  0  0
    5.3234    3.2274    0.0000 C   0  0  0  0  0  0  0  0  0  0  0  0
   10.4553   -3.7274    0.0000 C   0  0  0  0  0  0  0  0  0  0  0  0
   11.4212   -3.4686    0.0000 C   0  0  0  0  0  0  0  0  0  0  0  0
    4.1163    1.1367    0.0000 C   0  0  0  0  0  0  0  0  0  0  0  0
    4.4574    3.7274    0.0000 C   0  0  0  0  0  0  0  0  0  0  0  0
   11.6624   -1.6367    0.0000 C   0  0  0  0  0  0  0  0  0  0  0  0
    2.9914    2.6026    0.0000 C   0  0  3  0  0  0  0  0  0  0  0  0
    3.4914    3.4686    0.0000 C   0  0  0  0  0  0  0  0  0  0  0  0
    3.2503    1.6367    0.0000 C   0  0  0  0  0  0  0  0  0  0  0  0
   12.9127   -2.7331    0.0000 C   0  0  0  0  0  0  0  0  0  0  0  0
    2.0000    2.7331    0.0000 C   0  0  0  0  0  0  0  0  0  0  0  0
   13.2954   -3.6570    0.0000 C   0  0  0  0  0  0  0  0  0  0  0  0
    8.5644   -1.3281    0.0000 H   0  0  0  0  0  0  0  0  0  0  0  0
    7.3008    1.7226    0.0000 H   0  0  0  0  0  0  0  0  0  0  0  0
    7.7337   -2.2652    0.0000 H   0  0  0  0  0  0  0  0  0  0  0  0
    8.3661   -2.7504    0.0000 H   0  0  0  0  0  0  0  0  0  0  0  0
    9.0562   -1.7054    0.0000 H   0  0  0  0  0  0  0  0  0  0  0  0
    7.1790    2.2652    0.0000 H   0  0  0  0  0  0  0  0  0  0  0  0
    6.5466    2.7504    0.0000 H   0  0  0  0  0  0  0  0  0  0  0  0
    5.9910    2.7276    0.0000 H   0  0  0  0  0  0  0  0  0  0  0  0
    8.9734   -1.0369    0.0000 H   0  0  0  0  0  0  0  0  0  0  0  0
    9.2623   -0.3395    0.0000 H   0  0  0  0  0  0  0  0  0  0  0  0
    5.9392    1.0369    0.0000 H   0  0  0  0  0  0  0  0  0  0  0  0
    5.6504    0.3395    0.0000 H   0  0  0  0  0  0  0  0  0  0  0  0
    9.2623    0.3395    0.0000 H   0  0  0  0  0  0  0  0  0  0  0  0
    8.9734    1.0369    0.0000 H   0  0  0  0  0  0  0  0  0  0  0  0
    5.6504   -0.3395    0.0000 H   0  0  0  0  0  0  0  0  0  0  0  0
    5.9392   -1.0369    0.0000 H   0  0  0  0  0  0  0  0  0  0  0  0
    9.8305   -0.7755    0.0000 H   0  0  0  0  0  0  0  0  0  0  0  0
    9.2316   -1.2350    0.0000 H   0  0  0  0  0  0  0  0  0  0  0  0
    5.0822    0.7755    0.0000 H   0  0  0  0  0  0  0  0  0  0  0  0
    5.6811    1.2350    0.0000 H   0  0  0  0  0  0  0  0  0  0  0  0
   11.2348   -0.6983    0.0000 H   0  0  0  0  0  0  0  0  0  0  0  0
   10.4864   -0.5997    0.0000 H   0  0  0  0  0  0  0  0  0  0  0  0
   12.1955   -3.1586    0.0000 H   0  0  0  0  0  0  0  0  0  0  0  0
   10.0169   -4.1658    0.0000 H   0  0  0  0  0  0  0  0  0  0  0  0
   10.7653   -4.2644    0.0000 H   0  0  0  0  0  0  0  0  0  0  0  0
   11.4212   -4.0886    0.0000 H   0  0  0  0  0  0  0  0  0  0  0  0
   12.0201   -3.6291    0.0000 H   0  0  0  0  0  0  0  0  0  0  0  0
    3.6779    0.6983    0.0000 H   0  0  0  0  0  0  0  0  0  0  0  0
    4.4263    0.5997    0.0000 H   0  0  0  0  0  0  0  0  0  0  0  0
    4.8958    4.1658    0.0000 H   0  0  0  0  0  0  0  0  0  0  0  0
    4.1474    4.2644    0.0000 H   0  0  0  0  0  0  0  0  0  0  0  0
    2.7172    3.1586    0.0000 H   0  0  0  0  0  0  0  0  0  0  0  0
    3.4914    4.0886    0.0000 H   0  0  0  0  0  0  0  0  0  0  0  0
    2.8926    3.6291    0.0000 H   0  0  0  0  0  0  0  0  0  0  0  0
   13.5180   -2.5989    0.0000 H   0  0  0  0  0  0  0  0  0  0  0  0
   12.8856   -2.1137    0.0000 H   0  0  0  0  0  0  0  0  0  0  0  0
    2.0809    3.3478    0.0000 H   0  0  0  0  0  0  0  0  0  0  0  0
    1.3853    2.8140    0.0000 H   0  0  0  0  0  0  0  0  0  0  0  0
    1.9191    2.1184    0.0000 H   0  0  0  0  0  0  0  0  0  0  0  0
   12.7226   -3.8943    0.0000 H   0  0  0  0  0  0  0  0  0  0  0  0
   13.5326   -4.2298    0.0000 H   0  0  0  0  0  0  0  0  0  0  0  0
   13.8682   -3.4197    0.0000 H   0  0  0  0  0  0  0  0  0  0  0  0
  1 17  2  0  0  0  0
  2 18  2  0  0  0  0
  3 21  2  0  0  0  0
  4 24  2  0  0  0  0
  5 29  2  0  0  0  0
  6 32  2  0  0  0  0
  7  9  1  0  0  0  0
  7 13  1  0  0  0  0
  7 17  1  0  0  0  0
  7 36  1  0  0  0  0
  8 11  1  0  0  0  0
  8 14  1  0  0  0  0
  8 18  1  0  0  0  0
  8 37  1  0  0  0  0
  9 10  1  0  0  0  0
  9 38  1  0  0  0  0
  9 39  1  0  0  0  0
 10 19  1  0  0  0  0
 10 21  1  0  0  0  0
 10 40  1  0  0  0  0
 11 12  1  0  0  0  0
 11 41  1  0  0  0  0
 11 42  1  0  0  0  0
 12 20  1  0  0  0  0
 12 24  1  0  0  0  0
 12 43  1  0  0  0  0
 13 15  1  0  0  0  0
 13 44  1  0  0  0  0
 13 45  1  0  0  0  0
 14 16  1  0  0  0  0
 14 46  1  0  0  0  0
 14 47  1  0  0  0  0
 15 18  1  0  0  0  0
 15 48  1  0  0  0  0
 15 49  1  0  0  0  0
 16 17  1  0  0  0  0
 16 50  1  0  0  0  0
 16 51  1  0  0  0  0
 19 22  1  0  0  0  0
 19 52  1  0  0  0  0
 19 53  1  0  0  0  0
 20 27  1  0  0  0  0
 20 54  1  0  0  0  0
 20 55  1  0  0  0  0
 21 25  1  0  0  0  0
 22 29  1  0  0  0  0
 22 56  1  0  0  0  0
 22 57  1  0  0  0  0
 23 26  1  0  0  0  0
 23 29  1  0  0  0  0
 23 33  1  0  0  0  0
 23 58  1  0  0  0  0
 24 28  1  0  0  0  0
 25 26  1  0  0  0  0
 25 59  1  0  0  0  0
 25 60  1  0  0  0  0
 26 61  1  0  0  0  0
 26 62  1  0  0  0  0
 27 32  1  0  0  0  0
 27 63  1  0  0  0  0
 27 64  1  0  0  0  0
 28 31  1  0  0  0  0
 28 65  1  0  0  0  0
 28 66  1  0  0  0  0
 30 31  1  0  0  0  0
 30 32  1  0  0  0  0
 30 34  1  0  0  0  0
 30 67  1  0  0  0  0
 31 68  1  0  0  0  0
 31 69  1  0  0  0  0
 33 35  1  0  0  0  0
 33 70  1  0  0  0  0
 33 71  1  0  0  0  0
 34 72  1  0  0  0  0
 34 73  1  0  0  0  0
 34 74  1  0  0  0  0
 35 75  1  0  0  0  0
 35 76  1  0  0  0  0
 35 77  1  0  0  0  0
M  END
> <PUBCHEM_COMPOUND_CID>
59271054

> <PUBCHEM_COMPOUND_CANONICALIZED>
1

> <PUBCHEM_CACTVS_COMPLEXITY>
842

> <PUBCHEM_CACTVS_HBOND_ACCEPTOR>
6

> <PUBCHEM_CACTVS_HBOND_DONOR>
0

> <PUBCHEM_CACTVS_ROTATABLE_BOND>
5

> <PUBCHEM_CACTVS_SUBSKEYS>
AAADcfB4OAAAAAAAAAAAAAAAAAAAAAAAAAAAAAAAAAAYMAAAAAAAGgAAAAAADQSAgAACAAAAAAAIAIAQAAAAAAAAAAAAAAEAAAAAABIAAAAAAAAAAAAAAAEIisCuAAAAAAAAAAAAAAAAAAAAAAAAAAAAAA==

> <PUBCHEM_IUPAC_OPENEYE_NAME>
2-[[5-[(5-ethyl-2,6-dioxo-cyclooctyl)methyl]-2,6-dioxo-cyclooctyl]methyl]-6-methyl-cyclooctane-1,5-dione

> <PUBCHEM_IUPAC_CAS_NAME>
2-[[5-[(5-ethyl-2,6-dioxocyclooctyl)methyl]-2,6-dioxocyclooctyl]methyl]-6-methylcyclooctane-1,5-dione

> <PUBCHEM_IUPAC_NAME_MARKUP>
2-[[5-[(5-ethyl-2,6-dioxocyclooctyl)methyl]-2,6-dioxocyclooctyl]methyl]-6-methylcyclooctane-1,5-dione

> <PUBCHEM_IUPAC_NAME>
2-[[5-[(5-ethyl-2,6-dioxocyclooctyl)methyl]-2,6-dioxocyclooctyl]methyl]-6-methylcyclooctane-1,5-dione

> <PUBCHEM_IUPAC_SYSTEMATIC_NAME>
2-[[5-[[5-ethyl-2,6-bis(oxidanylidene)cyclooctyl]methyl]-2,6-bis(oxidanylidene)cyclooctyl]methyl]-6-methyl-cyclooctane-1,5-dione

> <PUBCHEM_IUPAC_TRADITIONAL_NAME>
2-[[5-[(5-ethyl-2,6-diketo-cyclooctyl)methyl]-2,6-diketo-cyclooctyl]methyl]-6-methyl-cyclooctane-1,5-quinone

> <PUBCHEM_IUPAC_INCHI>
InChI=1S/C29H42O6/c1-3-19-5-12-27(33)21(7-13-25(19)31)17-23-9-15-28(34)22(8-14-29(23)35)16-20-6-11-24(30)18(2)4-10-26(20)32/h18-23H,3-17H2,1-2H3

> <PUBCHEM_IUPAC_INCHIKEY>
NAFCIMPNMGZGSN-UHFFFAOYSA-N

> <PUBCHEM_XLOGP3_AA>
2.1

> <PUBCHEM_EXACT_MASS>
486.29813906

> <PUBCHEM_MOLECULAR_FORMULA>
C29H42O6

> <PUBCHEM_MOLECULAR_WEIGHT>
486.6

> <PUBCHEM_OPENEYE_CAN_SMILES>
CCC1CCC(=O)C(CCC1=O)CC2CCC(=O)C(CCC2=O)CC3CCC(=O)C(CCC3=O)C

> <PUBCHEM_OPENEYE_ISO_SMILES>
CCC1CCC(=O)C(CCC1=O)CC2CCC(=O)C(CCC2=O)CC3CCC(=O)C(CCC3=O)C

> <PUBCHEM_CACTVS_TPSA>
102

> <PUBCHEM_MONOISOTOPIC_WEIGHT>
486.29813906

> <PUBCHEM_TOTAL_CHARGE>
0

> <PUBCHEM_HEAVY_ATOM_COUNT>
35

> <PUBCHEM_ATOM_DEF_STEREO_COUNT>
0

> <PUBCHEM_ATOM_UDEF_STEREO_COUNT>
6

> <PUBCHEM_BOND_DEF_STEREO_COUNT>
0

> <PUBCHEM_BOND_UDEF_STEREO_COUNT>
0

> <PUBCHEM_ISOTOPIC_ATOM_COUNT>
0

> <PUBCHEM_COMPONENT_COUNT>
1

> <PUBCHEM_CACTVS_TAUTO_COUNT>
-1

> <PUBCHEM_COORDINATE_TYPE>
1
5
255

> <PUBCHEM_BONDANNOTATIONS>
12  11  3
23  33  3
30  34  3
7  9  3
8  11  3
10  9  3

$$$$
