 
  -OEChem-10192104242D

 77 80  0     1  0  0  0  0  0999 V2000
    8.0319    0.6827    0.0000 O   0  0  0  0  0  0  0  0  0  0  0  0
    4.7950   -0.0736    0.0000 O   0  0  0  0  0  0  0  0  0  0  0  0
    9.7423    0.7468    0.0000 O   0  0  0  0  0  0  0  0  0  0  0  0
   10.9151   -0.8733    0.0000 O   0  0  0  0  0  0  0  0  0  0  0  0
    7.4996    2.3309    0.0000 O   0  0  0  0  0  0  0  0  0  0  0  0
    2.0000   -3.6259    0.0000 O   0  0  0  0  0  0  0  0  0  0  0  0
    9.1931    1.9679    0.0000 O   0  0  0  0  0  0  0  0  0  0  0  0
   11.0932   -2.5962    0.0000 O   0  0  0  0  0  0  0  0  0  0  0  0
    7.3931   -0.5736    0.0000 C   0  0  1  0  0  0  0  0  0  0  0  0
    7.3931   -1.5736    0.0000 C   0  0  2  0  0  0  0  0  0  0  0  0
    6.5271   -2.0736    0.0000 C   0  0  1  0  0  0  0  0  0  0  0  0
    5.6610   -1.5736    0.0000 C   0  0  2  0  0  0  0  0  0  0  0  0
    8.3393   -0.2689    0.0000 C   0  0  1  0  0  0  0  0  0  0  0  0
    6.5271   -0.0736    0.0000 C   0  0  0  0  0  0  0  0  0  0  0  0
    8.3393   -1.8783    0.0000 C   0  0  0  0  0  0  0  0  0  0  0  0
    5.6610   -0.5736    0.0000 C   0  0  3  0  0  0  0  0  0  0  0  0
    4.7510   -2.0804    0.0000 C   0  0  1  0  0  0  0  0  0  0  0  0
    8.9229   -1.0736    0.0000 C   0  0  0  0  0  0  0  0  0  0  0  0
    6.5431   -3.1151    0.0000 C   0  0  0  0  0  0  0  0  0  0  0  0
    7.3931    0.4264    0.0000 C   0  0  0  0  0  0  0  0  0  0  0  0
    5.6451   -3.6428    0.0000 C   0  0  0  0  0  0  0  0  0  0  0  0
    4.7430   -3.1220    0.0000 C   0  0  0  0  0  0  0  0  0  0  0  0
    9.3340   -0.1661    0.0000 C   0  0  0  0  0  0  0  0  0  0  0  0
    4.7587   -1.0805    0.0000 C   0  0  0  0  0  0  0  0  0  0  0  0
    3.8242   -1.5164    0.0000 C   0  0  0  0  0  0  0  0  0  0  0  0
    3.8076   -3.6718    0.0000 C   0  0  0  0  0  0  0  0  0  0  0  0
    9.9204   -0.9761    0.0000 C   0  0  0  0  0  0  0  0  0  0  0  0
    2.8763   -2.0443    0.0000 C   0  0  0  0  0  0  0  0  0  0  0  0
    2.8680   -3.1293    0.0000 C   0  0  0  0  0  0  0  0  0  0  0  0
    8.2415    1.6605    0.0000 C   0  0  0  0  0  0  0  0  0  0  0  0
   11.5015   -1.6833    0.0000 C   0  0  0  0  0  0  0  0  0  0  0  0
    6.5480    2.0236    0.0000 C   0  0  0  0  0  0  0  0  0  0  0  0
    5.8060    2.6940    0.0000 C   0  0  0  0  0  0  0  0  0  0  0  0
   12.4962   -1.5805    0.0000 C   0  0  0  0  0  0  0  0  0  0  0  0
    4.8544    2.3866    0.0000 C   0  0  0  0  0  0  0  0  0  0  0  0
    6.0156    3.6718    0.0000 C   0  0  0  0  0  0  0  0  0  0  0  0
   13.0826   -2.3905    0.0000 C   0  0  0  0  0  0  0  0  0  0  0  0
    7.4830   -2.4188    0.0000 H   0  0  0  0  0  0  0  0  0  0  0  0
    7.2664   -2.4929    0.0000 H   0  0  0  0  0  0  0  0  0  0  0  0
    6.3972   -1.1486    0.0000 H   0  0  0  0  0  0  0  0  0  0  0  0
    6.9256    0.4014    0.0000 H   0  0  0  0  0  0  0  0  0  0  0  0
    6.1285    0.4014    0.0000 H   0  0  0  0  0  0  0  0  0  0  0  0
    8.0883   -2.4452    0.0000 H   0  0  0  0  0  0  0  0  0  0  0  0
    8.8767   -2.1876    0.0000 H   0  0  0  0  0  0  0  0  0  0  0  0
    5.6610    0.0464    0.0000 H   0  0  0  0  0  0  0  0  0  0  0  0
    9.3838   -1.4883    0.0000 H   0  0  0  0  0  0  0  0  0  0  0  0
    9.3838   -0.6589    0.0000 H   0  0  0  0  0  0  0  0  0  0  0  0
    6.7612   -3.6955    0.0000 H   0  0  0  0  0  0  0  0  0  0  0  0
    7.1523   -2.9996    0.0000 H   0  0  0  0  0  0  0  0  0  0  0  0
    8.0131    0.4264    0.0000 H   0  0  0  0  0  0  0  0  0  0  0  0
    7.3931    1.0464    0.0000 H   0  0  0  0  0  0  0  0  0  0  0  0
    6.7731    0.4264    0.0000 H   0  0  0  0  0  0  0  0  0  0  0  0
    5.2478   -4.1188    0.0000 H   0  0  0  0  0  0  0  0  0  0  0  0
    6.0460   -4.1158    0.0000 H   0  0  0  0  0  0  0  0  0  0  0  0
    5.3787   -1.0852    0.0000 H   0  0  0  0  0  0  0  0  0  0  0  0
    4.7635   -0.4605    0.0000 H   0  0  0  0  0  0  0  0  0  0  0  0
    4.1388   -1.0757    0.0000 H   0  0  0  0  0  0  0  0  0  0  0  0
    3.8361   -0.8965    0.0000 H   0  0  0  0  0  0  0  0  0  0  0  0
    4.7950    0.5464    0.0000 H   0  0  0  0  0  0  0  0  0  0  0  0
    3.8100   -4.2918    0.0000 H   0  0  0  0  0  0  0  0  0  0  0  0
    9.3627   -1.2469    0.0000 H   0  0  0  0  0  0  0  0  0  0  0  0
   10.0903   -1.5724    0.0000 H   0  0  0  0  0  0  0  0  0  0  0  0
    2.3430   -1.7281    0.0000 H   0  0  0  0  0  0  0  0  0  0  0  0
    6.0587    1.6427    0.0000 H   0  0  0  0  0  0  0  0  0  0  0  0
    6.8381    1.4756    0.0000 H   0  0  0  0  0  0  0  0  0  0  0  0
    6.3960    2.8846    0.0000 H   0  0  0  0  0  0  0  0  0  0  0  0
   13.0539   -1.3097    0.0000 H   0  0  0  0  0  0  0  0  0  0  0  0
   12.3263   -0.9842    0.0000 H   0  0  0  0  0  0  0  0  0  0  0  0
    4.6638    2.9766    0.0000 H   0  0  0  0  0  0  0  0  0  0  0  0
    4.2644    2.1960    0.0000 H   0  0  0  0  0  0  0  0  0  0  0  0
    5.0450    1.7966    0.0000 H   0  0  0  0  0  0  0  0  0  0  0  0
    6.6218    3.5418    0.0000 H   0  0  0  0  0  0  0  0  0  0  0  0
    6.1455    4.2780    0.0000 H   0  0  0  0  0  0  0  0  0  0  0  0
    5.4094    3.8017    0.0000 H   0  0  0  0  0  0  0  0  0  0  0  0
   12.5803   -2.7541    0.0000 H   0  0  0  0  0  0  0  0  0  0  0  0
   13.4461   -2.8928    0.0000 H   0  0  0  0  0  0  0  0  0  0  0  0
   13.5848   -2.0270    0.0000 H   0  0  0  0  0  0  0  0  0  0  0  0
 13  1  1  6  0  0  0
  1 30  1  0  0  0  0
  2 16  1  0  0  0  0
  2 59  1  0  0  0  0
  3 23  2  0  0  0  0
  4 27  1  0  0  0  0
  4 31  1  0  0  0  0
  5 30  1  0  0  0  0
  5 32  1  0  0  0  0
  6 29  2  0  0  0  0
  7 30  2  0  0  0  0
  8 31  2  0  0  0  0
  9 10  1  0  0  0  0
  9 13  1  0  0  0  0
  9 14  1  0  0  0  0
  9 20  1  1  0  0  0
 10 11  1  0  0  0  0
 10 15  1  0  0  0  0
 10 38  1  6  0  0  0
 11 12  1  0  0  0  0
 11 19  1  0  0  0  0
 11 39  1  1  0  0  0
 12 16  1  0  0  0  0
 12 17  1  0  0  0  0
 12 40  1  6  0  0  0
 13 18  1  0  0  0  0
 13 23  1  0  0  0  0
 14 16  1  0  0  0  0
 14 41  1  0  0  0  0
 14 42  1  0  0  0  0
 15 18  1  0  0  0  0
 15 43  1  0  0  0  0
 15 44  1  0  0  0  0
 16 45  1  0  0  0  0
 17 22  1  0  0  0  0
 17 24  1  1  0  0  0
 17 25  1  0  0  0  0
 18 46  1  0  0  0  0
 18 47  1  0  0  0  0
 19 21  1  0  0  0  0
 19 48  1  0  0  0  0
 19 49  1  0  0  0  0
 20 50  1  0  0  0  0
 20 51  1  0  0  0  0
 20 52  1  0  0  0  0
 21 22  1  0  0  0  0
 21 53  1  0  0  0  0
 21 54  1  0  0  0  0
 22 26  2  0  0  0  0
 23 27  1  0  0  0  0
 24 55  1  0  0  0  0
 24 56  1  0  0  0  0
 24 57  1  0  0  0  0
 25 28  2  0  0  0  0
 25 58  1  0  0  0  0
 26 29  1  0  0  0  0
 26 60  1  0  0  0  0
 27 61  1  0  0  0  0
 27 62  1  0  0  0  0
 28 29  1  0  0  0  0
 28 63  1  0  0  0  0
 31 34  1  0  0  0  0
 32 33  1  0  0  0  0
 32 64  1  0  0  0  0
 32 65  1  0  0  0  0
 33 35  1  0  0  0  0
 33 36  1  0  0  0  0
 33 66  1  0  0  0  0
 34 37  1  0  0  0  0
 34 67  1  0  0  0  0
 34 68  1  0  0  0  0
 35 69  1  0  0  0  0
 35 70  1  0  0  0  0
 35 71  1  0  0  0  0
 36 72  1  0  0  0  0
 36 73  1  0  0  0  0
 36 74  1  0  0  0  0
 37 75  1  0  0  0  0
 37 76  1  0  0  0  0
 37 77  1  0  0  0  0
M  END
> <PUBCHEM_COMPOUND_CID>
70583628

> <PUBCHEM_COMPOUND_CANONICALIZED>
1

> <PUBCHEM_CACTVS_COMPLEXITY>
1030

> <PUBCHEM_CACTVS_HBOND_ACCEPTOR>
8

> <PUBCHEM_CACTVS_HBOND_DONOR>
1

> <PUBCHEM_CACTVS_ROTATABLE_BOND>
10

> <PUBCHEM_CACTVS_SUBSKEYS>
AAADcfB4PAAAAAAAAAAAAAAAAAAAAYAAAAAwYIAAAAAAAGDAAAAAGgAACAAAD1SggAICCAAABgCIAqDSCAIAAAAgAAAICAFAAEgQEBIAAQQiQAAFgAAMAYPIzPDPgAAAAAAAAADAAAYAADAAAYAADAAAAA==

> <PUBCHEM_IUPAC_OPENEYE_NAME>
[2-[(8S,9S,10R,13S,14S,17R)-11-hydroxy-17-isobutoxycarbonyloxy-10,13-dimethyl-3-oxo-7,8,9,11,12,14,15,16-octahydro-6H-cyclopenta[a]phenanthren-17-yl]-2-oxo-ethyl] propanoate

> <PUBCHEM_IUPAC_CAS_NAME>
propanoic acid [2-[(8S,9S,10R,13S,14S,17R)-11-hydroxy-10,13-dimethyl-17-[2-methylpropoxy(oxo)methoxy]-3-oxo-7,8,9,11,12,14,15,16-octahydro-6H-cyclopenta[a]phenanthren-17-yl]-2-oxoethyl] ester

> <PUBCHEM_IUPAC_NAME_MARKUP>
[2-[(8<I>S</I>,9<I>S</I>,10<I>R</I>,13<I>S</I>,14<I>S</I>,17<I>R</I>)-11-hydroxy-10,13-dimethyl-17-(2-methylpropoxycarbonyloxy)-3-oxo-7,8,9,11,12,14,15,16-octahydro-6<I>H</I>-cyclopenta[a]phenanthren-17-yl]-2-oxoethyl] propanoate

> <PUBCHEM_IUPAC_NAME>
[2-[(8S,9S,10R,13S,14S,17R)-11-hydroxy-10,13-dimethyl-17-(2-methylpropoxycarbonyloxy)-3-oxo-7,8,9,11,12,14,15,16-octahydro-6H-cyclopenta[a]phenanthren-17-yl]-2-oxoethyl] propanoate

> <PUBCHEM_IUPAC_SYSTEMATIC_NAME>
[2-[(8S,9S,10R,13S,14S,17R)-10,13-dimethyl-17-(2-methylpropoxycarbonyloxy)-11-oxidanyl-3-oxidanylidene-7,8,9,11,12,14,15,16-octahydro-6H-cyclopenta[a]phenanthren-17-yl]-2-oxidanylidene-ethyl] propanoate

> <PUBCHEM_IUPAC_TRADITIONAL_NAME>
propionic acid [2-[(8S,9S,10R,13S,14S,17R)-11-hydroxy-17-isobutoxycarbonyloxy-3-keto-10,13-dimethyl-7,8,9,11,12,14,15,16-octahydro-6H-cyclopenta[a]phenanthren-17-yl]-2-keto-ethyl] ester

> <PUBCHEM_IUPAC_INCHI>
InChI=1S/C29H40O8/c1-6-24(33)35-16-23(32)29(37-26(34)36-15-17(2)3)12-10-21-20-8-7-18-13-19(30)9-11-27(18,4)25(20)22(31)14-28(21,29)5/h9,11,13,17,20-22,25,31H,6-8,10,12,14-16H2,1-5H3/t20-,21-,22?,25+,27-,28-,29-/m0/s1

> <PUBCHEM_IUPAC_INCHIKEY>
LDSLMNYMEOUIPZ-CXIOGYNESA-N

> <PUBCHEM_XLOGP3>
5.2

> <PUBCHEM_EXACT_MASS>
516.27231823

> <PUBCHEM_MOLECULAR_FORMULA>
C29H40O8

> <PUBCHEM_MOLECULAR_WEIGHT>
516.6

> <PUBCHEM_OPENEYE_CAN_SMILES>
CCC(=O)OCC(=O)C1(CCC2C1(CC(C3C2CCC4=CC(=O)C=CC34C)O)C)OC(=O)OCC(C)C

> <PUBCHEM_OPENEYE_ISO_SMILES>
CCC(=O)OCC(=O)[C@]1(CC[C@@H]2[C@@]1(CC([C@H]3[C@H]2CCC4=CC(=O)C=C[C@]34C)O)C)OC(=O)OCC(C)C

> <PUBCHEM_CACTVS_TPSA>
116

> <PUBCHEM_MONOISOTOPIC_WEIGHT>
516.27231823

> <PUBCHEM_TOTAL_CHARGE>
0

> <PUBCHEM_HEAVY_ATOM_COUNT>
37

> <PUBCHEM_ATOM_DEF_STEREO_COUNT>
6

> <PUBCHEM_ATOM_UDEF_STEREO_COUNT>
1

> <PUBCHEM_BOND_DEF_STEREO_COUNT>
0

> <PUBCHEM_BOND_UDEF_STEREO_COUNT>
0

> <PUBCHEM_ISOTOPIC_ATOM_COUNT>
0

> <PUBCHEM_COMPONENT_COUNT>
1

> <PUBCHEM_CACTVS_TAUTO_COUNT>
-1

> <PUBCHEM_COORDINATE_TYPE>
1
5
255

> <PUBCHEM_BONDANNOTATIONS>
13  1  6
10  38  6
11  39  5
12  40  6
17  24  5
16  2  3
9  20  5

$$$$
