 
  -OEChem-10192104122D

 24 24  0     0  0  0  0  0  0999 V2000
    6.8660    0.8660    0.0000 O   0  0  0  0  0  0  0  0  0  0  0  0
    6.8660   -0.8660    0.0000 O   0  0  0  0  0  0  0  0  0  0  0  0
    5.3660    1.7320    0.0000 O   0  0  0  0  0  0  0  0  0  0  0  0
    5.3660   -1.7320    0.0000 O   0  0  0  0  0  0  0  0  0  0  0  0
    2.8660    0.8660    0.0000 C   0  0  0  0  0  0  0  0  0  0  0  0
    2.0000    0.3660    0.0000 C   0  0  0  0  0  0  0  0  0  0  0  0
    2.0000    1.3660    0.0000 C   0  0  0  0  0  0  0  0  0  0  0  0
    3.8660    0.8660    0.0000 C   0  0  0  0  0  0  0  0  0  0  0  0
    4.3660    0.0000    0.0000 C   0  0  0  0  0  0  0  0  0  0  0  0
    5.3660    0.0000    0.0000 C   0  0  0  0  0  0  0  0  0  0  0  0
    5.8660    0.8660    0.0000 C   0  0  0  0  0  0  0  0  0  0  0  0
    5.8660   -0.8660    0.0000 C   0  0  0  0  0  0  0  0  0  0  0  0
    3.0265    0.2672    0.0000 H   0  0  0  0  0  0  0  0  0  0  0  0
    1.3894    0.2584    0.0000 H   0  0  0  0  0  0  0  0  0  0  0  0
    2.2120   -0.2166    0.0000 H   0  0  0  0  0  0  0  0  0  0  0  0
    2.2120    1.9486    0.0000 H   0  0  0  0  0  0  0  0  0  0  0  0
    1.3894    1.4737    0.0000 H   0  0  0  0  0  0  0  0  0  0  0  0
    4.4486    1.0781    0.0000 H   0  0  0  0  0  0  0  0  0  0  0  0
    3.7584    1.4766    0.0000 H   0  0  0  0  0  0  0  0  0  0  0  0
    3.7834   -0.2121    0.0000 H   0  0  0  0  0  0  0  0  0  0  0  0
    4.4737   -0.6106    0.0000 H   0  0  0  0  0  0  0  0  0  0  0  0
    5.0560   -0.5369    0.0000 H   0  0  0  0  0  0  0  0  0  0  0  0
    7.1760    1.4030    0.0000 H   0  0  0  0  0  0  0  0  0  0  0  0
    7.1760   -1.4030    0.0000 H   0  0  0  0  0  0  0  0  0  0  0  0
  1 11  1  0  0  0  0
  1 23  1  0  0  0  0
  2 12  1  0  0  0  0
  2 24  1  0  0  0  0
  3 11  2  0  0  0  0
  4 12  2  0  0  0  0
  5  6  1  0  0  0  0
  5  7  1  0  0  0  0
  5  8  1  0  0  0  0
  5 13  1  0  0  0  0
  6  7  1  0  0  0  0
  6 14  1  0  0  0  0
  6 15  1  0  0  0  0
  7 16  1  0  0  0  0
  7 17  1  0  0  0  0
  8  9  1  0  0  0  0
  8 18  1  0  0  0  0
  8 19  1  0  0  0  0
  9 10  1  0  0  0  0
  9 20  1  0  0  0  0
  9 21  1  0  0  0  0
 10 11  1  0  0  0  0
 10 12  1  0  0  0  0
 10 22  1  0  0  0  0
M  END
> <PUBCHEM_COMPOUND_CID>
20542332

> <PUBCHEM_COMPOUND_CANONICALIZED>
1

> <PUBCHEM_CACTVS_COMPLEXITY>
181

> <PUBCHEM_CACTVS_HBOND_ACCEPTOR>
4

> <PUBCHEM_CACTVS_HBOND_DONOR>
2

> <PUBCHEM_CACTVS_ROTATABLE_BOND>
5

> <PUBCHEM_CACTVS_SUBSKEYS>
AAADccBwOAAAAAAAAAAAAAAAGAAAAAAAAAAAAAAAAAAAAAAAAAAAGgAACAAADQCAgAAACAAAAgAIAACQCAAAAAAAAAAAAAEAAAAAABYIAAAAQAAFIAAAAAGIyHCMAAAAAAAAAAAAAAAAAAAAAAAAAAAAAA==

> <PUBCHEM_IUPAC_OPENEYE_NAME>
2-(2-cyclopropylethyl)propanedioic acid

> <PUBCHEM_IUPAC_CAS_NAME>
2-(2-cyclopropylethyl)propanedioic acid

> <PUBCHEM_IUPAC_NAME_MARKUP>
2-(2-cyclopropylethyl)propanedioic acid

> <PUBCHEM_IUPAC_NAME>
2-(2-cyclopropylethyl)propanedioic acid

> <PUBCHEM_IUPAC_SYSTEMATIC_NAME>
2-(2-cyclopropylethyl)propanedioic acid

> <PUBCHEM_IUPAC_TRADITIONAL_NAME>
2-(2-cyclopropylethyl)malonic acid

> <PUBCHEM_IUPAC_INCHI>
InChI=1S/C8H12O4/c9-7(10)6(8(11)12)4-3-5-1-2-5/h5-6H,1-4H2,(H,9,10)(H,11,12)

> <PUBCHEM_IUPAC_INCHIKEY>
MCPCYEOIEHUITQ-UHFFFAOYSA-N

> <PUBCHEM_XLOGP3_AA>
1.5

> <PUBCHEM_EXACT_MASS>
172.07355886

> <PUBCHEM_MOLECULAR_FORMULA>
C8H12O4

> <PUBCHEM_MOLECULAR_WEIGHT>
172.18

> <PUBCHEM_OPENEYE_CAN_SMILES>
C1CC1CCC(C(=O)O)C(=O)O

> <PUBCHEM_OPENEYE_ISO_SMILES>
C1CC1CCC(C(=O)O)C(=O)O

> <PUBCHEM_CACTVS_TPSA>
74.6

> <PUBCHEM_MONOISOTOPIC_WEIGHT>
172.07355886

> <PUBCHEM_TOTAL_CHARGE>
0

> <PUBCHEM_HEAVY_ATOM_COUNT>
12

> <PUBCHEM_ATOM_DEF_STEREO_COUNT>
0

> <PUBCHEM_ATOM_UDEF_STEREO_COUNT>
0

> <PUBCHEM_BOND_DEF_STEREO_COUNT>
0

> <PUBCHEM_BOND_UDEF_STEREO_COUNT>
0

> <PUBCHEM_ISOTOPIC_ATOM_COUNT>
0

> <PUBCHEM_COMPONENT_COUNT>
1

> <PUBCHEM_CACTVS_TAUTO_COUNT>
-1

> <PUBCHEM_COORDINATE_TYPE>
1
5
255

$$$$
