 
  -OEChem-10192104182D

 64 66  0     1  0  0  0  0  0999 V2000
    6.8671    2.7500    0.0000 O   0  0  0  0  0  0  0  0  0  0  0  0
    7.7331    2.2500    0.0000 O   0  0  0  0  0  0  0  0  0  0  0  0
    5.1350    2.7500    0.0000 O   0  0  0  0  0  0  0  0  0  0  0  0
    6.0010    0.2500    0.0000 O   0  0  0  0  0  0  0  0  0  0  0  0
    8.5991   -0.2500    0.0000 O   0  0  0  0  0  0  0  0  0  0  0  0
    9.4651    0.2500    0.0000 O   0  0  0  0  0  0  0  0  0  0  0  0
    9.4651    2.2500    0.0000 O   0  0  0  0  0  0  0  0  0  0  0  0
    6.8671    4.7500    0.0000 O   0  0  0  0  0  0  0  0  0  0  0  0
    5.1350    5.7500    0.0000 O   0  0  0  0  0  0  0  0  0  0  0  0
    3.4030    4.7500    0.0000 O   0  0  0  0  0  0  0  0  0  0  0  0
    5.1350    1.7500    0.0000 O   0  0  0  0  0  0  0  0  0  0  0  0
    6.0010   -0.7500    0.0000 O   0  0  0  0  0  0  0  0  0  0  0  0
    2.5369    3.2500    0.0000 O   0  0  0  0  0  0  0  0  0  0  0  0
    4.2690   -4.7500    0.0000 O   0  0  0  0  0  0  0  0  0  0  0  0
    6.0010   -5.7500    0.0000 O   0  0  0  0  0  0  0  0  0  0  0  0
    6.8671    1.7500    0.0000 C   0  0  2  0  0  0  0  0  0  0  0  0
    6.8671    0.7500    0.0000 C   0  0  2  0  0  0  0  0  0  0  0  0
    7.7331    0.2500    0.0000 C   0  0  1  0  0  0  0  0  0  0  0  0
    8.5991    0.7500    0.0000 C   0  0  2  0  0  0  0  0  0  0  0  0
    6.0010    3.2500    0.0000 C   0  0  3  0  0  0  0  0  0  0  0  0
    8.5991    1.7500    0.0000 C   0  0  3  0  0  0  0  0  0  0  0  0
    6.0010    4.2500    0.0000 C   0  0  1  0  0  0  0  0  0  0  0  0
    5.1350    4.7500    0.0000 C   0  0  2  0  0  0  0  0  0  0  0  0
    4.2690    4.2500    0.0000 C   0  0  1  0  0  0  0  0  0  0  0  0
    6.0010    1.2500    0.0000 C   0  0  0  0  0  0  0  0  0  0  0  0
    4.2690    3.2500    0.0000 C   0  0  1  0  0  0  0  0  0  0  0  0
    6.8671   -0.2500    0.0000 C   0  0  0  0  0  0  0  0  0  0  0  0
    3.4030    2.7500    0.0000 C   0  0  0  0  0  0  0  0  0  0  0  0
    6.8671   -1.2500    0.0000 C   0  0  0  0  0  0  0  0  0  0  0  0
    6.0010   -1.7500    0.0000 C   0  0  0  0  0  0  0  0  0  0  0  0
    6.0010   -2.7500    0.0000 C   0  0  0  0  0  0  0  0  0  0  0  0
    5.1350   -3.2500    0.0000 C   0  0  0  0  0  0  0  0  0  0  0  0
    6.8671   -3.2500    0.0000 C   0  0  0  0  0  0  0  0  0  0  0  0
    5.1350   -4.2500    0.0000 C   0  0  0  0  0  0  0  0  0  0  0  0
    6.8671   -4.2500    0.0000 C   0  0  0  0  0  0  0  0  0  0  0  0
    6.0010   -4.7500    0.0000 C   0  0  0  0  0  0  0  0  0  0  0  0
    6.3301    1.0600    0.0000 H   0  0  0  0  0  0  0  0  0  0  0  0
    9.1360    1.0600    0.0000 H   0  0  0  0  0  0  0  0  0  0  0  0
    6.5380    3.5600    0.0000 H   0  0  0  0  0  0  0  0  0  0  0  0
    8.5991    2.3700    0.0000 H   0  0  0  0  0  0  0  0  0  0  0  0
    6.0010    4.8700    0.0000 H   0  0  0  0  0  0  0  0  0  0  0  0
    4.5981    5.0600    0.0000 H   0  0  0  0  0  0  0  0  0  0  0  0
    4.2690    4.8700    0.0000 H   0  0  0  0  0  0  0  0  0  0  0  0
    5.6025    0.7751    0.0000 H   0  0  0  0  0  0  0  0  0  0  0  0
    6.3996    0.7751    0.0000 H   0  0  0  0  0  0  0  0  0  0  0  0
    4.2690    2.6300    0.0000 H   0  0  0  0  0  0  0  0  0  0  0  0
    5.4641    0.5600    0.0000 H   0  0  0  0  0  0  0  0  0  0  0  0
    8.5991   -0.8700    0.0000 H   0  0  0  0  0  0  0  0  0  0  0  0
    3.0044    2.2750    0.0000 H   0  0  0  0  0  0  0  0  0  0  0  0
    3.8015    2.2750    0.0000 H   0  0  0  0  0  0  0  0  0  0  0  0
   10.0021    0.5600    0.0000 H   0  0  0  0  0  0  0  0  0  0  0  0
    9.4651    2.8700    0.0000 H   0  0  0  0  0  0  0  0  0  0  0  0
    6.8671    5.3700    0.0000 H   0  0  0  0  0  0  0  0  0  0  0  0
    7.4040   -1.5600    0.0000 H   0  0  0  0  0  0  0  0  0  0  0  0
    4.5981    6.0600    0.0000 H   0  0  0  0  0  0  0  0  0  0  0  0
    3.4030    5.3700    0.0000 H   0  0  0  0  0  0  0  0  0  0  0  0
    4.5981    1.4400    0.0000 H   0  0  0  0  0  0  0  0  0  0  0  0
    2.0000    2.9400    0.0000 H   0  0  0  0  0  0  0  0  0  0  0  0
    5.4641   -1.4400    0.0000 H   0  0  0  0  0  0  0  0  0  0  0  0
    4.5981   -2.9400    0.0000 H   0  0  0  0  0  0  0  0  0  0  0  0
    7.4040   -2.9400    0.0000 H   0  0  0  0  0  0  0  0  0  0  0  0
    7.4040   -4.5600    0.0000 H   0  0  0  0  0  0  0  0  0  0  0  0
    3.7320   -4.4400    0.0000 H   0  0  0  0  0  0  0  0  0  0  0  0
    6.5380   -6.0600    0.0000 H   0  0  0  0  0  0  0  0  0  0  0  0
 16  1  1  6  0  0  0
  1 20  1  0  0  0  0
  2 16  1  0  0  0  0
  2 21  1  0  0  0  0
  3 20  1  0  0  0  0
  3 26  1  0  0  0  0
 17  4  1  6  0  0  0
  4 47  1  0  0  0  0
 18  5  1  1  0  0  0
  5 48  1  0  0  0  0
 19  6  1  6  0  0  0
  6 51  1  0  0  0  0
  7 21  1  0  0  0  0
  7 52  1  0  0  0  0
 22  8  1  1  0  0  0
  8 53  1  0  0  0  0
 23  9  1  6  0  0  0
  9 55  1  0  0  0  0
 24 10  1  1  0  0  0
 10 56  1  0  0  0  0
 11 25  1  0  0  0  0
 11 57  1  0  0  0  0
 12 27  2  0  0  0  0
 13 28  1  0  0  0  0
 13 58  1  0  0  0  0
 14 34  1  0  0  0  0
 14 63  1  0  0  0  0
 15 36  1  0  0  0  0
 15 64  1  0  0  0  0
 16 17  1  0  0  0  0
 16 25  1  0  0  0  0
 17 18  1  0  0  0  0
 17 37  1  0  0  0  0
 18 19  1  0  0  0  0
 18 27  1  0  0  0  0
 19 21  1  0  0  0  0
 19 38  1  0  0  0  0
 20 22  1  0  0  0  0
 20 39  1  0  0  0  0
 21 40  1  0  0  0  0
 22 23  1  0  0  0  0
 22 41  1  0  0  0  0
 23 24  1  0  0  0  0
 23 42  1  0  0  0  0
 24 26  1  0  0  0  0
 24 43  1  0  0  0  0
 25 44  1  0  0  0  0
 25 45  1  0  0  0  0
 26 28  1  6  0  0  0
 26 46  1  0  0  0  0
 27 29  1  0  0  0  0
 28 49  1  0  0  0  0
 28 50  1  0  0  0  0
 29 30  2  3  0  0  0
 29 54  1  0  0  0  0
 30 31  1  0  0  0  0
 30 59  1  0  0  0  0
 31 32  2  0  0  0  0
 31 33  1  0  0  0  0
 32 34  1  0  0  0  0
 32 60  1  0  0  0  0
 33 35  2  0  0  0  0
 33 61  1  0  0  0  0
 34 36  2  0  0  0  0
 35 36  1  0  0  0  0
 35 62  1  0  0  0  0
M  END
> <PUBCHEM_COMPOUND_CID>
57315774

> <PUBCHEM_COMPOUND_CANONICALIZED>
1

> <PUBCHEM_CACTVS_COMPLEXITY>
795

> <PUBCHEM_CACTVS_HBOND_ACCEPTOR>
15

> <PUBCHEM_CACTVS_HBOND_DONOR>
11

> <PUBCHEM_CACTVS_ROTATABLE_BOND>
7

> <PUBCHEM_CACTVS_SUBSKEYS>
AAADceB4PAAAAAAAAAAAAAAAAAAAAAAAAAA0SIAAAAAAAAABAAAAGgAACAAADFSwmAMwDoAABgCIAqBSAAICAAAgIAAIiAFGiMgZNjaCERKicAEl4BEPmYfK5BwOIAABAAAAQABAAAIAAACAAAAAAAAAAA==

> <PUBCHEM_IUPAC_OPENEYE_NAME>
3-(3,4-dihydroxyphenyl)-1-[(2S,3S,4R,5R)-3,4,5,6-tetrahydroxy-2-(hydroxymethyl)-2-[(3R,4S,5S,6R)-3,4,5-trihydroxy-6-(hydroxymethyl)tetrahydropyran-2-yl]oxy-tetrahydropyran-4-yl]prop-2-en-1-one

> <PUBCHEM_IUPAC_CAS_NAME>
3-(3,4-dihydroxyphenyl)-1-[(2S,3S,4R,5R)-3,4,5,6-tetrahydroxy-2-(hydroxymethyl)-2-[[(3R,4S,5S,6R)-3,4,5-trihydroxy-6-(hydroxymethyl)-2-oxanyl]oxy]-4-oxanyl]-2-propen-1-one

> <PUBCHEM_IUPAC_NAME_MARKUP>
3-(3,4-dihydroxyphenyl)-1-[(2<I>S</I>,3<I>S</I>,4<I>R</I>,5<I>R</I>)-3,4,5,6-tetrahydroxy-2-(hydroxymethyl)-2-[(3<I>R</I>,4<I>S</I>,5<I>S</I>,6<I>R</I>)-3,4,5-trihydroxy-6-(hydroxymethyl)oxan-2-yl]oxyoxan-4-yl]prop-2-en-1-one

> <PUBCHEM_IUPAC_NAME>
3-(3,4-dihydroxyphenyl)-1-[(2S,3S,4R,5R)-3,4,5,6-tetrahydroxy-2-(hydroxymethyl)-2-[(3R,4S,5S,6R)-3,4,5-trihydroxy-6-(hydroxymethyl)oxan-2-yl]oxyoxan-4-yl]prop-2-en-1-one

> <PUBCHEM_IUPAC_SYSTEMATIC_NAME>
3-[3,4-bis(oxidanyl)phenyl]-1-[(2S,3S,4R,5R)-2-(hydroxymethyl)-2-[(3R,4S,5S,6R)-6-(hydroxymethyl)-3,4,5-tris(oxidanyl)oxan-2-yl]oxy-3,4,5,6-tetrakis(oxidanyl)oxan-4-yl]prop-2-en-1-one

> <PUBCHEM_IUPAC_TRADITIONAL_NAME>
3-(3,4-dihydroxyphenyl)-1-[(2S,3S,4R,5R)-3,4,5,6-tetrahydroxy-2-methylol-2-[(3R,4S,5S,6R)-3,4,5-trihydroxy-6-methylol-tetrahydropyran-2-yl]oxy-tetrahydropyran-4-yl]prop-2-en-1-one

> <PUBCHEM_IUPAC_INCHI>
InChI=1S/C21H28O15/c22-6-11-13(27)14(28)15(29)18(34-11)36-20(7-23)19(32)21(33,16(30)17(31)35-20)12(26)4-2-8-1-3-9(24)10(25)5-8/h1-5,11,13-19,22-25,27-33H,6-7H2/t11-,13-,14+,15-,16+,17?,18?,19-,20+,21-/m1/s1

> <PUBCHEM_IUPAC_INCHIKEY>
NLSJFPIRIYHMOP-CHPJKCEVSA-N

> <PUBCHEM_XLOGP3_AA>
-3.5

> <PUBCHEM_EXACT_MASS>
520.14282018

> <PUBCHEM_MOLECULAR_FORMULA>
C21H28O15

> <PUBCHEM_MOLECULAR_WEIGHT>
520.4

> <PUBCHEM_OPENEYE_CAN_SMILES>
C1=CC(=C(C=C1C=CC(=O)C2(C(C(OC(C2O)(CO)OC3C(C(C(C(O3)CO)O)O)O)O)O)O)O)O

> <PUBCHEM_OPENEYE_ISO_SMILES>
C1=CC(=C(C=C1C=CC(=O)[C@]2([C@H](C(O[C@@]([C@H]2O)(CO)OC3[C@@H]([C@H]([C@@H]([C@H](O3)CO)O)O)O)O)O)O)O)O

> <PUBCHEM_CACTVS_TPSA>
267

> <PUBCHEM_MONOISOTOPIC_WEIGHT>
520.14282018

> <PUBCHEM_TOTAL_CHARGE>
0

> <PUBCHEM_HEAVY_ATOM_COUNT>
36

> <PUBCHEM_ATOM_DEF_STEREO_COUNT>
8

> <PUBCHEM_ATOM_UDEF_STEREO_COUNT>
2

> <PUBCHEM_BOND_DEF_STEREO_COUNT>
0

> <PUBCHEM_BOND_UDEF_STEREO_COUNT>
1

> <PUBCHEM_ISOTOPIC_ATOM_COUNT>
0

> <PUBCHEM_COMPONENT_COUNT>
1

> <PUBCHEM_CACTVS_TAUTO_COUNT>
-1

> <PUBCHEM_COORDINATE_TYPE>
1
5
255

> <PUBCHEM_BONDANNOTATIONS>
16  1  6
20  1  3
24  10  5
26  28  6
29  30  1
31  32  8
31  33  8
32  34  8
33  35  8
34  36  8
35  36  8
17  4  6
18  5  5
19  6  6
21  7  3
22  8  5
23  9  6

$$$$
