 
  -OEChem-10192103442D

 34 36  0     1  0  0  0  0  0999 V2000
    7.3435    0.6702    0.0000 O   0  0  0  0  0  0  0  0  0  0  0  0
    6.0873    2.9324    0.0000 O   0  0  0  0  0  0  0  0  0  0  0  0
    9.0681    1.8482    0.0000 O   0  0  0  0  0  0  0  0  0  0  0  0
    4.2690   -3.3924    0.0000 O   0  0  0  0  0  0  0  0  0  0  0  0
    6.0812   -0.5877    0.0000 N   0  0  0  0  0  0  0  0  0  0  0  0
    6.0812   -2.1972    0.0000 N   0  0  0  0  0  0  0  0  0  0  0  0
    4.2690   -0.3925    0.0000 N   0  0  0  0  0  0  0  0  0  0  0  0
    3.4030   -1.8924    0.0000 N   0  0  0  0  0  0  0  0  0  0  0  0
    2.5369   -2.3925    0.0000 N   0  0  0  0  0  0  0  0  0  0  0  0
    2.5369   -0.3925    0.0000 N   0  0  0  0  0  0  0  0  0  0  0  0
    6.3919    0.3628    0.0000 C   0  0  1  0  0  0  0  0  0  0  0  0
    6.3947    1.9808    0.0000 C   0  0  1  0  0  0  0  0  0  0  0  0
    5.8055    1.1728    0.0000 C   0  0  0  0  0  0  0  0  0  0  0  0
    7.3452    1.6702    0.0000 C   0  0  1  0  0  0  0  0  0  0  0  0
    8.1552    2.2566    0.0000 C   0  0  0  0  0  0  0  0  0  0  0  0
    5.1350   -0.8925    0.0000 C   0  0  0  0  0  0  0  0  0  0  0  0
    6.6648   -1.3924    0.0000 C   0  0  0  0  0  0  0  0  0  0  0  0
    5.1350   -1.8924    0.0000 C   0  0  0  0  0  0  0  0  0  0  0  0
    4.2690   -2.3925    0.0000 C   0  0  0  0  0  0  0  0  0  0  0  0
    3.4030   -0.8925    0.0000 C   0  0  0  0  0  0  0  0  0  0  0  0
    5.7794    0.2669    0.0000 H   0  0  0  0  0  0  0  0  0  0  0  0
    5.3455    1.5885    0.0000 H   0  0  0  0  0  0  0  0  0  0  0  0
    5.3440    0.7588    0.0000 H   0  0  0  0  0  0  0  0  0  0  0  0
    5.7825    2.0789    0.0000 H   0  0  0  0  0  0  0  0  0  0  0  0
    7.8972    1.3877    0.0000 H   0  0  0  0  0  0  0  0  0  0  0  0
    8.5028    2.7700    0.0000 H   0  0  0  0  0  0  0  0  0  0  0  0
    7.7100    2.6880    0.0000 H   0  0  0  0  0  0  0  0  0  0  0  0
    7.2848   -1.3924    0.0000 H   0  0  0  0  0  0  0  0  0  0  0  0
    6.5030    3.3924    0.0000 H   0  0  0  0  0  0  0  0  0  0  0  0
    9.5703    2.2118    0.0000 H   0  0  0  0  0  0  0  0  0  0  0  0
    2.0000   -2.0824    0.0000 H   0  0  0  0  0  0  0  0  0  0  0  0
    2.5369   -3.0124    0.0000 H   0  0  0  0  0  0  0  0  0  0  0  0
    2.5369    0.2275    0.0000 H   0  0  0  0  0  0  0  0  0  0  0  0
    2.0000   -0.7025    0.0000 H   0  0  0  0  0  0  0  0  0  0  0  0
  1 11  1  0  0  0  0
  1 14  1  0  0  0  0
 12  2  1  6  0  0  0
  2 29  1  0  0  0  0
  3 15  1  0  0  0  0
  3 30  1  0  0  0  0
  4 19  2  0  0  0  0
 11  5  1  1  0  0  0
  5 16  1  0  0  0  0
  5 17  1  0  0  0  0
  6 17  2  0  0  0  0
  6 18  1  0  0  0  0
  7 16  1  0  0  0  0
  7 20  2  0  0  0  0
  8  9  1  0  0  0  0
  8 19  1  0  0  0  0
  8 20  1  0  0  0  0
  9 31  1  0  0  0  0
  9 32  1  0  0  0  0
 10 20  1  0  0  0  0
 10 33  1  0  0  0  0
 10 34  1  0  0  0  0
 11 13  1  0  0  0  0
 11 21  1  0  0  0  0
 12 13  1  0  0  0  0
 12 14  1  0  0  0  0
 12 24  1  0  0  0  0
 13 22  1  0  0  0  0
 13 23  1  0  0  0  0
 14 15  1  1  0  0  0
 14 25  1  0  0  0  0
 15 26  1  0  0  0  0
 15 27  1  0  0  0  0
 16 18  2  0  0  0  0
 17 28  1  0  0  0  0
 18 19  1  0  0  0  0
M  END
> <PUBCHEM_COMPOUND_CID>
97381

> <PUBCHEM_COMPOUND_CANONICALIZED>
1

> <PUBCHEM_CACTVS_COMPLEXITY>
446

> <PUBCHEM_CACTVS_HBOND_ACCEPTOR>
7

> <PUBCHEM_CACTVS_HBOND_DONOR>
4

> <PUBCHEM_CACTVS_ROTATABLE_BOND>
2

> <PUBCHEM_CACTVS_SUBSKEYS>
AAADccBzuAAAAAAAAAAAAAAAAAAAAWJAAAAgAAAAAAAAAEABgAAAHgAYCAAACBzhlgYFsBdOFgCoAQdxdACAgC0XEKAXcAGoVECBWApAyCAeQIgfAQLDAGCwMAIAAAAAAAAAAAAAAAAAAAAAAAAAAAAAAA==

> <PUBCHEM_IUPAC_OPENEYE_NAME>
1,2-diamino-9-[(2R,4S,5R)-4-hydroxy-5-(hydroxymethyl)tetrahydrofuran-2-yl]purin-6-one

> <PUBCHEM_IUPAC_CAS_NAME>
1,2-diamino-9-[(2R,4S,5R)-4-hydroxy-5-(hydroxymethyl)-2-oxolanyl]-6-purinone

> <PUBCHEM_IUPAC_NAME_MARKUP>
1,2-diamino-9-[(2<I>R</I>,4<I>S</I>,5<I>R</I>)-4-hydroxy-5-(hydroxymethyl)oxolan-2-yl]purin-6-one

> <PUBCHEM_IUPAC_NAME>
1,2-diamino-9-[(2R,4S,5R)-4-hydroxy-5-(hydroxymethyl)oxolan-2-yl]purin-6-one

> <PUBCHEM_IUPAC_SYSTEMATIC_NAME>
1,2-bis(azanyl)-9-[(2R,4S,5R)-5-(hydroxymethyl)-4-oxidanyl-oxolan-2-yl]purin-6-one

> <PUBCHEM_IUPAC_TRADITIONAL_NAME>
1,2-diamino-9-[(2R,4S,5R)-4-hydroxy-5-methylol-tetrahydrofuran-2-yl]purin-6-one

> <PUBCHEM_IUPAC_INCHI>
InChI=1S/C10H14N6O4/c11-10-14-8-7(9(19)16(10)12)13-3-15(8)6-1-4(18)5(2-17)20-6/h3-6,17-18H,1-2,12H2,(H2,11,14)/t4-,5+,6+/m0/s1

> <PUBCHEM_IUPAC_INCHIKEY>
RRIXSWKTPPFTLI-KVQBGUIXSA-N

> <PUBCHEM_XLOGP3_AA>
-2.3

> <PUBCHEM_EXACT_MASS>
282.10765295

> <PUBCHEM_MOLECULAR_FORMULA>
C10H14N6O4

> <PUBCHEM_MOLECULAR_WEIGHT>
282.26

> <PUBCHEM_OPENEYE_CAN_SMILES>
C1C(C(OC1N2C=NC3=C2N=C(N(C3=O)N)N)CO)O

> <PUBCHEM_OPENEYE_ISO_SMILES>
C1[C@@H]([C@H](O[C@H]1N2C=NC3=C2N=C(N(C3=O)N)N)CO)O

> <PUBCHEM_CACTVS_TPSA>
152

> <PUBCHEM_MONOISOTOPIC_WEIGHT>
282.10765295

> <PUBCHEM_TOTAL_CHARGE>
0

> <PUBCHEM_HEAVY_ATOM_COUNT>
20

> <PUBCHEM_ATOM_DEF_STEREO_COUNT>
3

> <PUBCHEM_ATOM_UDEF_STEREO_COUNT>
0

> <PUBCHEM_BOND_DEF_STEREO_COUNT>
0

> <PUBCHEM_BOND_UDEF_STEREO_COUNT>
0

> <PUBCHEM_ISOTOPIC_ATOM_COUNT>
0

> <PUBCHEM_COMPONENT_COUNT>
1

> <PUBCHEM_CACTVS_TAUTO_COUNT>
-1

> <PUBCHEM_COORDINATE_TYPE>
1
5
255

> <PUBCHEM_BONDANNOTATIONS>
14  15  5
16  18  8
18  19  8
12  2  6
11  5  5
5  16  8
5  17  8
6  17  8
6  18  8
7  16  8
7  20  8
8  19  8
8  20  8

$$$$
