 
  -OEChem-10192103402D

 36 36  0     1  0  0  0  0  0999 V2000
    4.2690   -1.1550    0.0000 O   0  0  0  0  0  0  0  0  0  0  0  0
    6.0010   -1.1550    0.0000 O   0  0  0  0  0  0  0  0  0  0  0  0
    4.2690   -4.1550    0.0000 O   0  0  0  0  0  0  0  0  0  0  0  0
    2.5369   -3.1550    0.0000 O   0  0  0  0  0  0  0  0  0  0  0  0
    6.0010   -3.1550    0.0000 O   0  0  0  0  0  0  0  0  0  0  0  0
    2.5369   -0.1550    0.0000 O   0  0  0  0  0  0  0  0  0  0  0  0
    6.8671    1.3450    0.0000 O   0  0  0  0  0  0  0  0  0  0  0  0
    4.2690   -3.1550    0.0000 C   0  0  3  0  0  0  0  0  0  0  0  0
    3.4030   -2.6550    0.0000 C   0  0  3  0  0  0  0  0  0  0  0  0
    5.1350   -2.6550    0.0000 C   0  0  3  0  0  0  0  0  0  0  0  0
    3.4030   -1.6550    0.0000 C   0  0  3  0  0  0  0  0  0  0  0  0
    5.1350   -1.6550    0.0000 C   0  0  3  0  0  0  0  0  0  0  0  0
    2.5369   -1.1550    0.0000 C   0  0  0  0  0  0  0  0  0  0  0  0
    6.0010   -0.1550    0.0000 C   0  0  0  0  0  0  0  0  0  0  0  0
    6.8671    0.3450    0.0000 C   0  0  0  0  0  0  0  0  0  0  0  0
    7.7331    1.8450    0.0000 C   0  0  0  0  0  0  0  0  0  0  0  0
    7.7331    2.8450    0.0000 C   0  0  0  0  0  0  0  0  0  0  0  0
    7.7331    3.8450    0.0000 C   0  0  0  0  0  0  0  0  0  0  0  0
    3.7320   -3.4650    0.0000 H   0  0  0  0  0  0  0  0  0  0  0  0
    3.4030   -3.2750    0.0000 H   0  0  0  0  0  0  0  0  0  0  0  0
    5.1350   -3.2750    0.0000 H   0  0  0  0  0  0  0  0  0  0  0  0
    3.4030   -1.0350    0.0000 H   0  0  0  0  0  0  0  0  0  0  0  0
    5.1350   -1.0350    0.0000 H   0  0  0  0  0  0  0  0  0  0  0  0
    1.9264   -1.0473    0.0000 H   0  0  0  0  0  0  0  0  0  0  0  0
    2.3249   -1.7376    0.0000 H   0  0  0  0  0  0  0  0  0  0  0  0
    3.7320   -4.4650    0.0000 H   0  0  0  0  0  0  0  0  0  0  0  0
    2.0000   -2.8450    0.0000 H   0  0  0  0  0  0  0  0  0  0  0  0
    6.5380   -2.8450    0.0000 H   0  0  0  0  0  0  0  0  0  0  0  0
    5.7890    0.4276    0.0000 H   0  0  0  0  0  0  0  0  0  0  0  0
    5.3905   -0.2627    0.0000 H   0  0  0  0  0  0  0  0  0  0  0  0
    2.0000    0.1550    0.0000 H   0  0  0  0  0  0  0  0  0  0  0  0
    7.0791   -0.2376    0.0000 H   0  0  0  0  0  0  0  0  0  0  0  0
    7.4776    0.4527    0.0000 H   0  0  0  0  0  0  0  0  0  0  0  0
    7.9451    1.2624    0.0000 H   0  0  0  0  0  0  0  0  0  0  0  0
    8.3437    1.9527    0.0000 H   0  0  0  0  0  0  0  0  0  0  0  0
    7.7331    4.4650    0.0000 H   0  0  0  0  0  0  0  0  0  0  0  0
  1 11  1  0  0  0  0
  1 12  1  0  0  0  0
  2 12  1  0  0  0  0
  2 14  1  0  0  0  0
  3  8  1  0  0  0  0
  3 26  1  0  0  0  0
  4  9  1  0  0  0  0
  4 27  1  0  0  0  0
  5 10  1  0  0  0  0
  5 28  1  0  0  0  0
  6 13  1  0  0  0  0
  6 31  1  0  0  0  0
  7 15  1  0  0  0  0
  7 16  1  0  0  0  0
  8  9  1  0  0  0  0
  8 10  1  0  0  0  0
  8 19  1  0  0  0  0
  9 11  1  0  0  0  0
  9 20  1  0  0  0  0
 10 12  1  0  0  0  0
 10 21  1  0  0  0  0
 11 13  1  0  0  0  0
 11 22  1  0  0  0  0
 12 23  1  0  0  0  0
 13 24  1  0  0  0  0
 13 25  1  0  0  0  0
 14 15  1  0  0  0  0
 14 29  1  0  0  0  0
 14 30  1  0  0  0  0
 15 32  1  0  0  0  0
 15 33  1  0  0  0  0
 16 17  1  0  0  0  0
 16 34  1  0  0  0  0
 16 35  1  0  0  0  0
 17 18  3  0  0  0  0
 18 36  1  0  0  0  0
M  END
> <PUBCHEM_COMPOUND_CID>
121288689

> <PUBCHEM_COMPOUND_CANONICALIZED>
1

> <PUBCHEM_CACTVS_COMPLEXITY>
286

> <PUBCHEM_CACTVS_HBOND_ACCEPTOR>
7

> <PUBCHEM_CACTVS_HBOND_DONOR>
4

> <PUBCHEM_CACTVS_ROTATABLE_BOND>
6

> <PUBCHEM_CACTVS_SUBSKEYS>
AAADceBwOAAAAAAAAAAAAAAAAAAAAAAAAAAkAAAAAAAAAAAAAAAAGgAACAAACBSwgAMACAAABgBAGAAAAAAAAAAAAAAAAAAAAAAREAIAAAAiQAAFAAAHAAHAYAwAAAAAAAAAAAAAAAAAAAAAAAAAAAAAAA==

> <PUBCHEM_IUPAC_OPENEYE_NAME>
2-(hydroxymethyl)-6-(2-prop-2-ynoxyethoxy)tetrahydropyran-3,4,5-triol

> <PUBCHEM_IUPAC_CAS_NAME>
2-(hydroxymethyl)-6-(2-prop-2-ynoxyethoxy)oxane-3,4,5-triol

> <PUBCHEM_IUPAC_NAME_MARKUP>
2-(hydroxymethyl)-6-(2-prop-2-ynoxyethoxy)oxane-3,4,5-triol

> <PUBCHEM_IUPAC_NAME>
2-(hydroxymethyl)-6-(2-prop-2-ynoxyethoxy)oxane-3,4,5-triol

> <PUBCHEM_IUPAC_SYSTEMATIC_NAME>
2-(hydroxymethyl)-6-(2-prop-2-ynoxyethoxy)oxane-3,4,5-triol

> <PUBCHEM_IUPAC_TRADITIONAL_NAME>
2-methylol-6-(2-propargyloxyethoxy)tetrahydropyran-3,4,5-triol

> <PUBCHEM_IUPAC_INCHI>
InChI=1S/C11H18O7/c1-2-3-16-4-5-17-11-10(15)9(14)8(13)7(6-12)18-11/h1,7-15H,3-6H2

> <PUBCHEM_IUPAC_INCHIKEY>
CRGDFWAHPGOZID-UHFFFAOYSA-N

> <PUBCHEM_XLOGP3_AA>
-2.1

> <PUBCHEM_EXACT_MASS>
262.10525291

> <PUBCHEM_MOLECULAR_FORMULA>
C11H18O7

> <PUBCHEM_MOLECULAR_WEIGHT>
262.26

> <PUBCHEM_OPENEYE_CAN_SMILES>
C#CCOCCOC1C(C(C(C(O1)CO)O)O)O

> <PUBCHEM_OPENEYE_ISO_SMILES>
C#CCOCCOC1C(C(C(C(O1)CO)O)O)O

> <PUBCHEM_CACTVS_TPSA>
109

> <PUBCHEM_MONOISOTOPIC_WEIGHT>
262.10525291

> <PUBCHEM_TOTAL_CHARGE>
0

> <PUBCHEM_HEAVY_ATOM_COUNT>
18

> <PUBCHEM_ATOM_DEF_STEREO_COUNT>
0

> <PUBCHEM_ATOM_UDEF_STEREO_COUNT>
5

> <PUBCHEM_BOND_DEF_STEREO_COUNT>
0

> <PUBCHEM_BOND_UDEF_STEREO_COUNT>
0

> <PUBCHEM_ISOTOPIC_ATOM_COUNT>
0

> <PUBCHEM_COMPONENT_COUNT>
1

> <PUBCHEM_CACTVS_TAUTO_COUNT>
-1

> <PUBCHEM_COORDINATE_TYPE>
1
5
255

> <PUBCHEM_BONDANNOTATIONS>
11  13  3
12  2  3
8  3  3
9  4  3
10  5  3

$$$$
