 
  -OEChem-10192104002D

 65 64  0     1  0  0  0  0  0999 V2000
    6.8671   -4.6900    0.0000 O   0  0  0  0  0  0  0  0  0  0  0  0
    6.0010   -6.1900    0.0000 O   0  0  0  0  0  0  0  0  0  0  0  0
    2.5369   -5.1900    0.0000 O   0  0  0  0  0  0  0  0  0  0  0  0
    3.4030   -6.6900    0.0000 O   0  0  0  0  0  0  0  0  0  0  0  0
    3.4030   -3.6900    0.0000 O   0  0  0  0  0  0  0  0  0  0  0  0
    5.1350   -6.6900    0.0000 O   0  0  0  0  0  0  0  0  0  0  0  0
    6.8671   -0.6900    0.0000 C   0  0  0  0  0  0  0  0  0  0  0  0
    6.8671   -1.6900    0.0000 C   0  0  0  0  0  0  0  0  0  0  0  0
    7.7331   -0.1900    0.0000 C   0  0  0  0  0  0  0  0  0  0  0  0
    6.0010   -2.1900    0.0000 C   0  0  0  0  0  0  0  0  0  0  0  0
    7.7331    0.8100    0.0000 C   0  0  0  0  0  0  0  0  0  0  0  0
    6.0010   -3.1900    0.0000 C   0  0  0  0  0  0  0  0  0  0  0  0
    8.5991    1.3100    0.0000 C   0  0  0  0  0  0  0  0  0  0  0  0
    5.1350   -3.6900    0.0000 C   0  0  0  0  0  0  0  0  0  0  0  0
    8.5991    2.3100    0.0000 C   0  0  0  0  0  0  0  0  0  0  0  0
    5.1350   -4.6900    0.0000 C   0  0  3  0  0  0  0  0  0  0  0  0
    9.4651    2.8100    0.0000 C   0  0  0  0  0  0  0  0  0  0  0  0
    9.4651    3.8100    0.0000 C   0  0  0  0  0  0  0  0  0  0  0  0
   10.3312    4.3100    0.0000 C   0  0  0  0  0  0  0  0  0  0  0  0
    4.2690   -5.1900    0.0000 C   0  0  0  0  0  0  0  0  0  0  0  0
   10.3312    5.3100    0.0000 C   0  0  0  0  0  0  0  0  0  0  0  0
   11.1972    5.8100    0.0000 C   0  0  0  0  0  0  0  0  0  0  0  0
    6.0010   -5.1900    0.0000 C   0  0  0  0  0  0  0  0  0  0  0  0
   11.1972    6.8100    0.0000 C   0  0  0  0  0  0  0  0  0  0  0  0
    3.4030   -4.6900    0.0000 C   0  0  0  0  0  0  0  0  0  0  0  0
    4.2690   -6.1900    0.0000 C   0  0  0  0  0  0  0  0  0  0  0  0
   12.0632    7.3100    0.0000 C   0  0  0  0  0  0  0  0  0  0  0  0
    6.6550   -0.1074    0.0000 H   0  0  0  0  0  0  0  0  0  0  0  0
    6.2565   -0.7977    0.0000 H   0  0  0  0  0  0  0  0  0  0  0  0
    7.0791   -2.2726    0.0000 H   0  0  0  0  0  0  0  0  0  0  0  0
    7.4776   -1.5823    0.0000 H   0  0  0  0  0  0  0  0  0  0  0  0
    7.9451   -0.7726    0.0000 H   0  0  0  0  0  0  0  0  0  0  0  0
    8.3437   -0.0823    0.0000 H   0  0  0  0  0  0  0  0  0  0  0  0
    5.7890   -1.6074    0.0000 H   0  0  0  0  0  0  0  0  0  0  0  0
    5.3905   -2.2977    0.0000 H   0  0  0  0  0  0  0  0  0  0  0  0
    7.5210    1.3926    0.0000 H   0  0  0  0  0  0  0  0  0  0  0  0
    7.1225    0.7023    0.0000 H   0  0  0  0  0  0  0  0  0  0  0  0
    6.2131   -3.7726    0.0000 H   0  0  0  0  0  0  0  0  0  0  0  0
    6.6116   -3.0823    0.0000 H   0  0  0  0  0  0  0  0  0  0  0  0
    8.8112    0.7274    0.0000 H   0  0  0  0  0  0  0  0  0  0  0  0
    9.2097    1.4177    0.0000 H   0  0  0  0  0  0  0  0  0  0  0  0
    4.9230   -3.1074    0.0000 H   0  0  0  0  0  0  0  0  0  0  0  0
    4.5244   -3.7977    0.0000 H   0  0  0  0  0  0  0  0  0  0  0  0
    8.3871    2.8926    0.0000 H   0  0  0  0  0  0  0  0  0  0  0  0
    7.9885    2.2023    0.0000 H   0  0  0  0  0  0  0  0  0  0  0  0
    5.1350   -5.3100    0.0000 H   0  0  0  0  0  0  0  0  0  0  0  0
    9.6772    2.2274    0.0000 H   0  0  0  0  0  0  0  0  0  0  0  0
   10.0757    2.9177    0.0000 H   0  0  0  0  0  0  0  0  0  0  0  0
    9.2531    4.3926    0.0000 H   0  0  0  0  0  0  0  0  0  0  0  0
    8.8546    3.7023    0.0000 H   0  0  0  0  0  0  0  0  0  0  0  0
   10.5432    3.7274    0.0000 H   0  0  0  0  0  0  0  0  0  0  0  0
   10.9417    4.4177    0.0000 H   0  0  0  0  0  0  0  0  0  0  0  0
    4.2690   -4.5700    0.0000 H   0  0  0  0  0  0  0  0  0  0  0  0
   10.1191    5.8926    0.0000 H   0  0  0  0  0  0  0  0  0  0  0  0
    9.7206    5.2023    0.0000 H   0  0  0  0  0  0  0  0  0  0  0  0
   11.4092    5.2274    0.0000 H   0  0  0  0  0  0  0  0  0  0  0  0
   11.8078    5.9177    0.0000 H   0  0  0  0  0  0  0  0  0  0  0  0
   10.9851    7.3926    0.0000 H   0  0  0  0  0  0  0  0  0  0  0  0
   10.5866    6.7023    0.0000 H   0  0  0  0  0  0  0  0  0  0  0  0
   12.3732    6.7731    0.0000 H   0  0  0  0  0  0  0  0  0  0  0  0
   12.6002    7.6200    0.0000 H   0  0  0  0  0  0  0  0  0  0  0  0
   11.7532    7.8469    0.0000 H   0  0  0  0  0  0  0  0  0  0  0  0
    7.4040   -5.0000    0.0000 H   0  0  0  0  0  0  0  0  0  0  0  0
    2.0000   -4.8800    0.0000 H   0  0  0  0  0  0  0  0  0  0  0  0
    3.4030   -7.3100    0.0000 H   0  0  0  0  0  0  0  0  0  0  0  0
  1 23  1  0  0  0  0
  1 63  1  0  0  0  0
  2 23  2  0  0  0  0
  3 25  1  0  0  0  0
  3 64  1  0  0  0  0
  4 26  1  0  0  0  0
  4 65  1  0  0  0  0
  5 25  2  0  0  0  0
  6 26  2  0  0  0  0
  7  8  1  0  0  0  0
  7  9  1  0  0  0  0
  7 28  1  0  0  0  0
  7 29  1  0  0  0  0
  8 10  1  0  0  0  0
  8 30  1  0  0  0  0
  8 31  1  0  0  0  0
  9 11  1  0  0  0  0
  9 32  1  0  0  0  0
  9 33  1  0  0  0  0
 10 12  1  0  0  0  0
 10 34  1  0  0  0  0
 10 35  1  0  0  0  0
 11 13  1  0  0  0  0
 11 36  1  0  0  0  0
 11 37  1  0  0  0  0
 12 14  1  0  0  0  0
 12 38  1  0  0  0  0
 12 39  1  0  0  0  0
 13 15  1  0  0  0  0
 13 40  1  0  0  0  0
 13 41  1  0  0  0  0
 14 16  1  0  0  0  0
 14 42  1  0  0  0  0
 14 43  1  0  0  0  0
 15 17  1  0  0  0  0
 15 44  1  0  0  0  0
 15 45  1  0  0  0  0
 16 20  1  0  0  0  0
 16 23  1  0  0  0  0
 16 46  1  0  0  0  0
 17 18  1  0  0  0  0
 17 47  1  0  0  0  0
 17 48  1  0  0  0  0
 18 19  1  0  0  0  0
 18 49  1  0  0  0  0
 18 50  1  0  0  0  0
 19 21  1  0  0  0  0
 19 51  1  0  0  0  0
 19 52  1  0  0  0  0
 20 25  1  0  0  0  0
 20 26  1  0  0  0  0
 20 53  1  0  0  0  0
 21 22  1  0  0  0  0
 21 54  1  0  0  0  0
 21 55  1  0  0  0  0
 22 24  1  0  0  0  0
 22 56  1  0  0  0  0
 22 57  1  0  0  0  0
 24 27  1  0  0  0  0
 24 58  1  0  0  0  0
 24 59  1  0  0  0  0
 27 60  1  0  0  0  0
 27 61  1  0  0  0  0
 27 62  1  0  0  0  0
M  END
> <PUBCHEM_COMPOUND_CID>
19100529

> <PUBCHEM_COMPOUND_CANONICALIZED>
1

> <PUBCHEM_CACTVS_COMPLEXITY>
407

> <PUBCHEM_CACTVS_HBOND_ACCEPTOR>
6

> <PUBCHEM_CACTVS_HBOND_DONOR>
3

> <PUBCHEM_CACTVS_ROTATABLE_BOND>
19

> <PUBCHEM_CACTVS_SUBSKEYS>
AAADcfB4OAAAAAAAAAAAAAAAAAAAAAAAAAAAAAAAAAAAAAAAAAAAGgAACAAADQCAgAACCAAAAgAIAACQCAAAAAAAAAAAAAEAAAAAABYIAAAAQAAFIAAAAAHLyOCOgAAAAAAAAAAAAAAAAAAAAAAAAAAAAA==

> <PUBCHEM_IUPAC_OPENEYE_NAME>
octadecane-1,1,2-tricarboxylic acid

> <PUBCHEM_IUPAC_CAS_NAME>
octadecane-1,1,2-tricarboxylic acid

> <PUBCHEM_IUPAC_NAME_MARKUP>
octadecane-1,1,2-tricarboxylic acid

> <PUBCHEM_IUPAC_NAME>
octadecane-1,1,2-tricarboxylic acid

> <PUBCHEM_IUPAC_SYSTEMATIC_NAME>
octadecane-1,1,2-tricarboxylic acid

> <PUBCHEM_IUPAC_TRADITIONAL_NAME>
octadecane-1,1,2-tricarboxylic acid

> <PUBCHEM_IUPAC_INCHI>
InChI=1S/C21H38O6/c1-2-3-4-5-6-7-8-9-10-11-12-13-14-15-16-17(19(22)23)18(20(24)25)21(26)27/h17-18H,2-16H2,1H3,(H,22,23)(H,24,25)(H,26,27)

> <PUBCHEM_IUPAC_INCHIKEY>
HOCBGGAJHBRXFR-UHFFFAOYSA-N

> <PUBCHEM_XLOGP3_AA>
7.5

> <PUBCHEM_EXACT_MASS>
386.26683893

> <PUBCHEM_MOLECULAR_FORMULA>
C21H38O6

> <PUBCHEM_MOLECULAR_WEIGHT>
386.5

> <PUBCHEM_OPENEYE_CAN_SMILES>
CCCCCCCCCCCCCCCCC(C(C(=O)O)C(=O)O)C(=O)O

> <PUBCHEM_OPENEYE_ISO_SMILES>
CCCCCCCCCCCCCCCCC(C(C(=O)O)C(=O)O)C(=O)O

> <PUBCHEM_CACTVS_TPSA>
112

> <PUBCHEM_MONOISOTOPIC_WEIGHT>
386.26683893

> <PUBCHEM_TOTAL_CHARGE>
0

> <PUBCHEM_HEAVY_ATOM_COUNT>
27

> <PUBCHEM_ATOM_DEF_STEREO_COUNT>
0

> <PUBCHEM_ATOM_UDEF_STEREO_COUNT>
1

> <PUBCHEM_BOND_DEF_STEREO_COUNT>
0

> <PUBCHEM_BOND_UDEF_STEREO_COUNT>
0

> <PUBCHEM_ISOTOPIC_ATOM_COUNT>
0

> <PUBCHEM_COMPONENT_COUNT>
1

> <PUBCHEM_CACTVS_TAUTO_COUNT>
-1

> <PUBCHEM_COORDINATE_TYPE>
1
5
255

> <PUBCHEM_BONDANNOTATIONS>
16  14  3

$$$$
