 
  -OEChem-10192104052D

 60 65  0     1  0  0  0  0  0999 V2000
    5.5981    4.8660    0.0000 O   0  0  0  0  0  0  0  0  0  0  0  0
    3.0000   -1.3660    0.0000 O   0  0  0  0  0  0  0  0  0  0  0  0
   11.2942   -1.0000    0.0000 O   0  0  0  0  0  0  0  0  0  0  0  0
    6.3301   -4.8660    0.0000 O   0  0  0  0  0  0  0  0  0  0  0  0
    2.5000    2.5000    0.0000 O   0  0  0  0  0  0  0  0  0  0  0  0
    9.4282   -2.5000    0.0000 O   0  0  0  0  0  0  0  0  0  0  0  0
    5.9641    2.5000    0.0000 O   0  0  0  0  0  0  0  0  0  0  0  0
    4.2320   -0.5000    0.0000 O   0  0  0  0  0  0  0  0  0  0  0  0
    7.6962    0.5000    0.0000 O   0  0  0  0  0  0  0  0  0  0  0  0
    5.9641   -2.5000    0.0000 O   0  0  0  0  0  0  0  0  0  0  0  0
    4.2320    2.5000    0.0000 N   0  0  0  0  0  0  0  0  0  0  0  0
    3.3660    1.0000    0.0000 N   0  0  0  0  0  0  0  0  0  0  0  0
    8.5622   -1.0000    0.0000 N   0  0  0  0  0  0  0  0  0  0  0  0
    7.6962   -2.5000    0.0000 N   0  0  0  0  0  0  0  0  0  0  0  0
    5.0981    1.0000    0.0000 N   0  0  0  0  0  0  0  0  0  0  0  0
    6.8301   -1.0000    0.0000 N   0  0  0  0  0  0  0  0  0  0  0  0
    5.0981    4.0000    0.0000 C   0  0  3  0  0  0  0  0  0  0  0  0
    2.5000   -0.5000    0.0000 C   0  0  3  0  0  0  0  0  0  0  0  0
   10.2942   -1.0000    0.0000 C   0  0  3  0  0  0  0  0  0  0  0  0
    6.8301   -4.0000    0.0000 C   0  0  3  0  0  0  0  0  0  0  0  0
    4.2320    3.5000    0.0000 C   0  0  0  0  0  0  0  0  0  0  0  0
    2.5000    0.5000    0.0000 C   0  0  0  0  0  0  0  0  0  0  0  0
    9.4282   -0.5000    0.0000 C   0  0  0  0  0  0  0  0  0  0  0  0
    7.6962   -3.5000    0.0000 C   0  0  0  0  0  0  0  0  0  0  0  0
    6.0981    4.0000    0.0000 C   0  0  0  0  0  0  0  0  0  0  0  0
    2.0000   -1.3660    0.0000 C   0  0  0  0  0  0  0  0  0  0  0  0
   10.7942   -1.8660    0.0000 C   0  0  0  0  0  0  0  0  0  0  0  0
    5.8301   -4.0000    0.0000 C   0  0  0  0  0  0  0  0  0  0  0  0
    5.9641    0.5000    0.0000 C   0  0  0  0  0  0  0  0  0  0  0  0
    5.9641   -0.5000    0.0000 C   0  0  0  0  0  0  0  0  0  0  0  0
    3.3660    2.0000    0.0000 C   0  0  0  0  0  0  0  0  0  0  0  0
    8.5622   -2.0000    0.0000 C   0  0  0  0  0  0  0  0  0  0  0  0
    5.0981    2.0000    0.0000 C   0  0  0  0  0  0  0  0  0  0  0  0
    4.2320    0.5000    0.0000 C   0  0  0  0  0  0  0  0  0  0  0  0
    7.6962   -0.5000    0.0000 C   0  0  0  0  0  0  0  0  0  0  0  0
    6.8301   -2.0000    0.0000 C   0  0  0  0  0  0  0  0  0  0  0  0
    4.6597    4.4384    0.0000 H   0  0  0  0  0  0  0  0  0  0  0  0
    3.0989   -0.3395    0.0000 H   0  0  0  0  0  0  0  0  0  0  0  0
   10.4547   -0.4011    0.0000 H   0  0  0  0  0  0  0  0  0  0  0  0
    7.2685   -4.4384    0.0000 H   0  0  0  0  0  0  0  0  0  0  0  0
    4.0200    4.0826    0.0000 H   0  0  0  0  0  0  0  0  0  0  0  0
    3.6215    3.3923    0.0000 H   0  0  0  0  0  0  0  0  0  0  0  0
    2.2880    1.0826    0.0000 H   0  0  0  0  0  0  0  0  0  0  0  0
    1.8894    0.3923    0.0000 H   0  0  0  0  0  0  0  0  0  0  0  0
    9.8267   -0.0251    0.0000 H   0  0  0  0  0  0  0  0  0  0  0  0
    9.0297   -0.0251    0.0000 H   0  0  0  0  0  0  0  0  0  0  0  0
    7.9082   -4.0826    0.0000 H   0  0  0  0  0  0  0  0  0  0  0  0
    8.3067   -3.3923    0.0000 H   0  0  0  0  0  0  0  0  0  0  0  0
    6.2057    3.3894    0.0000 H   0  0  0  0  0  0  0  0  0  0  0  0
    6.6807    4.2120    0.0000 H   0  0  0  0  0  0  0  0  0  0  0  0
    1.4174   -1.1540    0.0000 H   0  0  0  0  0  0  0  0  0  0  0  0
    1.8923   -1.9766    0.0000 H   0  0  0  0  0  0  0  0  0  0  0  0
   10.3193   -2.2646    0.0000 H   0  0  0  0  0  0  0  0  0  0  0  0
   11.2692   -2.2646    0.0000 H   0  0  0  0  0  0  0  0  0  0  0  0
    5.7225   -3.3894    0.0000 H   0  0  0  0  0  0  0  0  0  0  0  0
    5.2475   -4.2120    0.0000 H   0  0  0  0  0  0  0  0  0  0  0  0
    6.5747    0.3923    0.0000 H   0  0  0  0  0  0  0  0  0  0  0  0
    6.1762    1.0826    0.0000 H   0  0  0  0  0  0  0  0  0  0  0  0
    5.3535   -0.3923    0.0000 H   0  0  0  0  0  0  0  0  0  0  0  0
    5.7520   -1.0826    0.0000 H   0  0  0  0  0  0  0  0  0  0  0  0
  1 17  1  0  0  0  0
  1 25  1  0  0  0  0
  2 18  1  0  0  0  0
  2 26  1  0  0  0  0
  3 19  1  0  0  0  0
  3 27  1  0  0  0  0
  4 20  1  0  0  0  0
  4 28  1  0  0  0  0
  5 31  2  0  0  0  0
  6 32  2  0  0  0  0
  7 33  2  0  0  0  0
  8 34  2  0  0  0  0
  9 35  2  0  0  0  0
 10 36  2  0  0  0  0
 11 21  1  0  0  0  0
 11 31  1  0  0  0  0
 11 33  1  0  0  0  0
 12 22  1  0  0  0  0
 12 31  1  0  0  0  0
 12 34  1  0  0  0  0
 13 23  1  0  0  0  0
 13 32  1  0  0  0  0
 13 35  1  0  0  0  0
 14 24  1  0  0  0  0
 14 32  1  0  0  0  0
 14 36  1  0  0  0  0
 15 29  1  0  0  0  0
 15 33  1  0  0  0  0
 15 34  1  0  0  0  0
 16 30  1  0  0  0  0
 16 35  1  0  0  0  0
 16 36  1  0  0  0  0
 17 21  1  0  0  0  0
 17 25  1  0  0  0  0
 17 37  1  0  0  0  0
 18 22  1  0  0  0  0
 18 26  1  0  0  0  0
 18 38  1  0  0  0  0
 19 23  1  0  0  0  0
 19 27  1  0  0  0  0
 19 39  1  0  0  0  0
 20 24  1  0  0  0  0
 20 28  1  0  0  0  0
 20 40  1  0  0  0  0
 21 41  1  0  0  0  0
 21 42  1  0  0  0  0
 22 43  1  0  0  0  0
 22 44  1  0  0  0  0
 23 45  1  0  0  0  0
 23 46  1  0  0  0  0
 24 47  1  0  0  0  0
 24 48  1  0  0  0  0
 25 49  1  0  0  0  0
 25 50  1  0  0  0  0
 26 51  1  0  0  0  0
 26 52  1  0  0  0  0
 27 53  1  0  0  0  0
 27 54  1  0  0  0  0
 28 55  1  0  0  0  0
 28 56  1  0  0  0  0
 29 30  1  0  0  0  0
 29 57  1  0  0  0  0
 29 58  1  0  0  0  0
 30 59  1  0  0  0  0
 30 60  1  0  0  0  0
M  END
> <PUBCHEM_COMPOUND_CID>
20427233

> <PUBCHEM_COMPOUND_CANONICALIZED>
1

> <PUBCHEM_CACTVS_COMPLEXITY>
887

> <PUBCHEM_CACTVS_HBOND_ACCEPTOR>
10

> <PUBCHEM_CACTVS_HBOND_DONOR>
0

> <PUBCHEM_CACTVS_ROTATABLE_BOND>
11

> <PUBCHEM_CACTVS_SUBSKEYS>
AAADceB7vAAAAAAAAAAAAAAAEiQAAAAAAAAsWAAAAAAAAAAAAAAAHgAAAAAACBThgAYBAAMABAAIAAAAEAAAAAAAAAAAAAAIAACCQAAAAAAVAAAKByIQAAAAAAAAAAAAAAAAAAAAAAAAAAAAAAAAAAAAAA==

> <PUBCHEM_IUPAC_OPENEYE_NAME>
1-[2-[3,5-bis(oxiran-2-ylmethyl)-2,4,6-trioxo-1,3,5-triazinan-1-yl]ethyl]-3,5-bis(oxiran-2-ylmethyl)-1,3,5-triazinane-2,4,6-trione

> <PUBCHEM_IUPAC_CAS_NAME>
1-[2-[3,5-bis(2-oxiranylmethyl)-2,4,6-trioxo-1,3,5-triazinan-1-yl]ethyl]-3,5-bis(2-oxiranylmethyl)-1,3,5-triazinane-2,4,6-trione

> <PUBCHEM_IUPAC_NAME_MARKUP>
1-[2-[3,5-bis(oxiran-2-ylmethyl)-2,4,6-trioxo-1,3,5-triazinan-1-yl]ethyl]-3,5-bis(oxiran-2-ylmethyl)-1,3,5-triazinane-2,4,6-trione

> <PUBCHEM_IUPAC_NAME>
1-[2-[3,5-bis(oxiran-2-ylmethyl)-2,4,6-trioxo-1,3,5-triazinan-1-yl]ethyl]-3,5-bis(oxiran-2-ylmethyl)-1,3,5-triazinane-2,4,6-trione

> <PUBCHEM_IUPAC_SYSTEMATIC_NAME>
1,3-bis(oxiran-2-ylmethyl)-5-[2-[2,4,6-tris(oxidanylidene)-3,5-bis(oxiran-2-ylmethyl)-1,3,5-triazinan-1-yl]ethyl]-1,3,5-triazinane-2,4,6-trione

> <PUBCHEM_IUPAC_TRADITIONAL_NAME>
1-[2-(3,5-diglycidyl-2,4,6-triketo-1,3,5-triazinan-1-yl)ethyl]-3,5-diglycidyl-isocyanuric acid

> <PUBCHEM_IUPAC_INCHI>
InChI=1S/C20H24N6O10/c27-15-21(16(28)24(4-12-8-34-12)19(31)23(15)3-11-7-33-11)1-2-22-17(29)25(5-13-9-35-13)20(32)26(18(22)30)6-14-10-36-14/h11-14H,1-10H2

> <PUBCHEM_IUPAC_INCHIKEY>
XRSKWODKYDAYJN-UHFFFAOYSA-N

> <PUBCHEM_XLOGP3_AA>
-2.7

> <PUBCHEM_EXACT_MASS>
508.15539098

> <PUBCHEM_MOLECULAR_FORMULA>
C20H24N6O10

> <PUBCHEM_MOLECULAR_WEIGHT>
508.4

> <PUBCHEM_OPENEYE_CAN_SMILES>
C1C(O1)CN2C(=O)N(C(=O)N(C2=O)CC3CO3)CCN4C(=O)N(C(=O)N(C4=O)CC5CO5)CC6CO6

> <PUBCHEM_OPENEYE_ISO_SMILES>
C1C(O1)CN2C(=O)N(C(=O)N(C2=O)CC3CO3)CCN4C(=O)N(C(=O)N(C4=O)CC5CO5)CC6CO6

> <PUBCHEM_CACTVS_TPSA>
172

> <PUBCHEM_MONOISOTOPIC_WEIGHT>
508.15539098

> <PUBCHEM_TOTAL_CHARGE>
0

> <PUBCHEM_HEAVY_ATOM_COUNT>
36

> <PUBCHEM_ATOM_DEF_STEREO_COUNT>
0

> <PUBCHEM_ATOM_UDEF_STEREO_COUNT>
4

> <PUBCHEM_BOND_DEF_STEREO_COUNT>
0

> <PUBCHEM_BOND_UDEF_STEREO_COUNT>
0

> <PUBCHEM_ISOTOPIC_ATOM_COUNT>
0

> <PUBCHEM_COMPONENT_COUNT>
1

> <PUBCHEM_CACTVS_TAUTO_COUNT>
-1

> <PUBCHEM_COORDINATE_TYPE>
1
5
255

> <PUBCHEM_BONDANNOTATIONS>
11  31  8
11  33  8
12  31  8
12  34  8
13  32  8
13  35  8
14  32  8
14  36  8
15  33  8
15  34  8
16  35  8
16  36  8
17  21  3
18  22  3
19  23  3
20  24  3

$$$$
