 
  -OEChem-10192103412D

 23 24  0     0  0  0  0  0  0999 V2000
    7.1279   -0.1340    0.0000 S   0  0  0  0  0  0  0  0  0  0  0  0
    3.7320    1.8660    0.0000 O   0  0  0  0  0  0  0  0  0  0  0  0
    2.0000   -1.1340    0.0000 O   0  0  0  0  0  0  0  0  0  0  0  0
    5.5443    0.6708    0.0000 N   0  0  0  0  0  0  0  0  0  0  0  0
    3.7320   -1.1340    0.0000 N   0  0  0  0  0  0  0  0  0  0  0  0
    5.5443   -0.9387    0.0000 N   0  0  0  0  0  0  0  0  0  0  0  0
    2.8660    0.3660    0.0000 N   0  0  0  0  0  0  0  0  0  0  0  0
    4.5981    0.3660    0.0000 C   0  0  0  0  0  0  0  0  0  0  0  0
    4.5981   -0.6340    0.0000 C   0  0  0  0  0  0  0  0  0  0  0  0
    6.1279   -0.1340    0.0000 C   0  0  0  0  0  0  0  0  0  0  0  0
    3.7320    0.8660    0.0000 C   0  0  0  0  0  0  0  0  0  0  0  0
    2.8660   -0.6340    0.0000 C   0  0  0  0  0  0  0  0  0  0  0  0
    7.6279   -1.0000    0.0000 C   0  0  0  0  0  0  0  0  0  0  0  0
    8.6279   -1.0000    0.0000 C   0  0  0  0  0  0  0  0  0  0  0  0
    9.1279   -1.8660    0.0000 C   0  0  0  0  0  0  0  0  0  0  0  0
    5.7369    1.2601    0.0000 H   0  0  0  0  0  0  0  0  0  0  0  0
    3.7320   -1.7540    0.0000 H   0  0  0  0  0  0  0  0  0  0  0  0
    2.3291    0.6760    0.0000 H   0  0  0  0  0  0  0  0  0  0  0  0
    7.0453   -1.2120    0.0000 H   0  0  0  0  0  0  0  0  0  0  0  0
    7.7356   -1.6106    0.0000 H   0  0  0  0  0  0  0  0  0  0  0  0
    8.9379   -0.4631    0.0000 H   0  0  0  0  0  0  0  0  0  0  0  0
    8.8179   -2.4030    0.0000 H   0  0  0  0  0  0  0  0  0  0  0  0
    9.7479   -1.8660    0.0000 H   0  0  0  0  0  0  0  0  0  0  0  0
  1 10  1  0  0  0  0
  1 13  1  0  0  0  0
  2 11  2  0  0  0  0
  3 12  2  0  0  0  0
  4  8  1  0  0  0  0
  4 10  1  0  0  0  0
  4 16  1  0  0  0  0
  5  9  1  0  0  0  0
  5 12  1  0  0  0  0
  5 17  1  0  0  0  0
  6  9  1  0  0  0  0
  6 10  2  0  0  0  0
  7 11  1  0  0  0  0
  7 12  1  0  0  0  0
  7 18  1  0  0  0  0
  8  9  2  0  0  0  0
  8 11  1  0  0  0  0
 13 14  1  0  0  0  0
 13 19  1  0  0  0  0
 13 20  1  0  0  0  0
 14 15  2  0  0  0  0
 14 21  1  0  0  0  0
 15 22  1  0  0  0  0
 15 23  1  0  0  0  0
M  END
> <PUBCHEM_COMPOUND_CID>
69769728

> <PUBCHEM_COMPOUND_CANONICALIZED>
1

> <PUBCHEM_CACTVS_COMPLEXITY>
309

> <PUBCHEM_CACTVS_HBOND_ACCEPTOR>
4

> <PUBCHEM_CACTVS_HBOND_DONOR>
3

> <PUBCHEM_CACTVS_ROTATABLE_BOND>
3

> <PUBCHEM_CACTVS_SUBSKEYS>
AAADccBzsABAAAAAAAAAAAAAAAAAAWAAAAAsAAAAAAAAAFgBgAAAHgQQAAAACAiF1gCBsBbJkAioASdydACA0i3HELAJEQGgVECASAhASSAUAIgIBSJAAGAAAAAAAAAAAAAAAAAAAAAAAAAAAAAAAAAAAA==

> <PUBCHEM_IUPAC_OPENEYE_NAME>
8-allylsulfanyl-3,7-dihydropurine-2,6-dione

> <PUBCHEM_IUPAC_CAS_NAME>
8-(prop-2-enylthio)-3,7-dihydropurine-2,6-dione

> <PUBCHEM_IUPAC_NAME_MARKUP>
8-prop-2-enylsulfanyl-3,7-dihydropurine-2,6-dione

> <PUBCHEM_IUPAC_NAME>
8-prop-2-enylsulfanyl-3,7-dihydropurine-2,6-dione

> <PUBCHEM_IUPAC_SYSTEMATIC_NAME>
8-prop-2-enylsulfanyl-3,7-dihydropurine-2,6-dione

> <PUBCHEM_IUPAC_TRADITIONAL_NAME>
8-(allylthio)-7H-xanthine

> <PUBCHEM_IUPAC_INCHI>
InChI=1S/C8H8N4O2S/c1-2-3-15-8-9-4-5(11-8)10-7(14)12-6(4)13/h2H,1,3H2,(H3,9,10,11,12,13,14)

> <PUBCHEM_IUPAC_INCHIKEY>
YOJRVLRDOZVIQU-UHFFFAOYSA-N

> <PUBCHEM_XLOGP3_AA>
0.7

> <PUBCHEM_EXACT_MASS>
224.03679668

> <PUBCHEM_MOLECULAR_FORMULA>
C8H8N4O2S

> <PUBCHEM_MOLECULAR_WEIGHT>
224.24

> <PUBCHEM_OPENEYE_CAN_SMILES>
C=CCSC1=NC2=C(N1)C(=O)NC(=O)N2

> <PUBCHEM_OPENEYE_ISO_SMILES>
C=CCSC1=NC2=C(N1)C(=O)NC(=O)N2

> <PUBCHEM_CACTVS_TPSA>
112

> <PUBCHEM_MONOISOTOPIC_WEIGHT>
224.03679668

> <PUBCHEM_TOTAL_CHARGE>
0

> <PUBCHEM_HEAVY_ATOM_COUNT>
15

> <PUBCHEM_ATOM_DEF_STEREO_COUNT>
0

> <PUBCHEM_ATOM_UDEF_STEREO_COUNT>
0

> <PUBCHEM_BOND_DEF_STEREO_COUNT>
0

> <PUBCHEM_BOND_UDEF_STEREO_COUNT>
0

> <PUBCHEM_ISOTOPIC_ATOM_COUNT>
0

> <PUBCHEM_COMPONENT_COUNT>
1

> <PUBCHEM_CACTVS_TAUTO_COUNT>
-1

> <PUBCHEM_COORDINATE_TYPE>
1
5
255

> <PUBCHEM_BONDANNOTATIONS>
4  10  8
4  8  8
5  12  8
5  9  8
6  10  8
6  9  8
7  11  8
7  12  8
8  11  8
8  9  8

$$$$
