 
  -OEChem-10192104242D

 72 75  0     1  0  0  0  0  0999 V2000
    6.0580    1.2234    0.0000 O   0  0  0  0  0  0  0  0  0  0  0  0
    8.3181    2.4834    0.0000 O   0  0  0  0  0  0  0  0  0  0  0  0
    9.3703    1.5835    0.0000 O   0  0  0  0  0  0  0  0  0  0  0  0
    5.1350   -3.3644    0.0000 O   0  0  0  0  0  0  0  0  0  0  0  0
    6.8671   -3.3644    0.0000 O   0  0  0  0  0  0  0  0  0  0  0  0
    5.1350   -6.3644    0.0000 O   0  0  0  0  0  0  0  0  0  0  0  0
    6.8671   -5.3644    0.0000 O   0  0  0  0  0  0  0  0  0  0  0  0
    3.4030   -5.3644    0.0000 O   0  0  0  0  0  0  0  0  0  0  0  0
    5.1350   -2.3644    0.0000 O   0  0  0  0  0  0  0  0  0  0  0  0
    2.5369   -3.8644    0.0000 O   0  0  0  0  0  0  0  0  0  0  0  0
    5.6350    6.1744    0.0000 O   0  0  0  0  0  0  0  0  0  0  0  0
    3.9030    5.1744    0.0000 O   0  0  0  0  0  0  0  0  0  0  0  0
    7.3671    2.1744    0.0000 C   0  0  3  0  0  0  0  0  0  0  0  0
    7.6761    1.2234    0.0000 C   0  0  3  0  0  0  0  0  0  0  0  0
    6.8671    0.6356    0.0000 C   0  0  3  0  0  0  0  0  0  0  0  0
    6.3671    2.1744    0.0000 C   0  0  0  0  0  0  0  0  0  0  0  0
    7.3671    3.1744    0.0000 C   0  0  0  0  0  0  0  0  0  0  0  0
    8.6271    0.9143    0.0000 C   0  0  0  0  0  0  0  0  0  0  0  0
    6.8671   -0.3644    0.0000 C   0  0  0  0  0  0  0  0  0  0  0  0
    6.5010    3.6744    0.0000 C   0  0  0  0  0  0  0  0  0  0  0  0
    6.0010   -0.8644    0.0000 C   0  0  0  0  0  0  0  0  0  0  0  0
    7.7331   -0.8644    0.0000 C   0  0  0  0  0  0  0  0  0  0  0  0
    5.1350   -5.3644    0.0000 C   0  0  2  0  0  0  0  0  0  0  0  0
    6.0010   -4.8644    0.0000 C   0  0  2  0  0  0  0  0  0  0  0  0
    4.2690   -4.8644    0.0000 C   0  0  1  0  0  0  0  0  0  0  0  0
    6.0010   -3.8644    0.0000 C   0  0  1  0  0  0  0  0  0  0  0  0
    4.2690   -3.8644    0.0000 C   0  0  1  0  0  0  0  0  0  0  0  0
    6.0010   -1.8644    0.0000 C   0  0  0  0  0  0  0  0  0  0  0  0
    6.8671   -2.3644    0.0000 C   0  0  0  0  0  0  0  0  0  0  0  0
    6.5010    4.6744    0.0000 C   0  0  0  0  0  0  0  0  0  0  0  0
    5.6350    3.1744    0.0000 C   0  0  0  0  0  0  0  0  0  0  0  0
    7.7331   -1.8644    0.0000 C   0  0  0  0  0  0  0  0  0  0  0  0
    3.4030   -3.3644    0.0000 C   0  0  0  0  0  0  0  0  0  0  0  0
    5.6350    5.1744    0.0000 C   0  0  0  0  0  0  0  0  0  0  0  0
    4.7690    3.6744    0.0000 C   0  0  0  0  0  0  0  0  0  0  0  0
    4.7690    4.6744    0.0000 C   0  0  0  0  0  0  0  0  0  0  0  0
    4.2690   -1.8644    0.0000 C   0  0  0  0  0  0  0  0  0  0  0  0
    6.5010    6.6744    0.0000 C   0  0  0  0  0  0  0  0  0  0  0  0
    8.1145    1.6618    0.0000 H   0  0  0  0  0  0  0  0  0  0  0  0
    7.4195    0.3541    0.0000 H   0  0  0  0  0  0  0  0  0  0  0  0
    6.4319    2.7910    0.0000 H   0  0  0  0  0  0  0  0  0  0  0  0
    5.7606    2.3033    0.0000 H   0  0  0  0  0  0  0  0  0  0  0  0
    7.9776    3.0668    0.0000 H   0  0  0  0  0  0  0  0  0  0  0  0
    7.5791    3.7570    0.0000 H   0  0  0  0  0  0  0  0  0  0  0  0
    8.3361    0.3669    0.0000 H   0  0  0  0  0  0  0  0  0  0  0  0
    9.1157    0.5326    0.0000 H   0  0  0  0  0  0  0  0  0  0  0  0
    8.4470    3.0899    0.0000 H   0  0  0  0  0  0  0  0  0  0  0  0
    5.4641   -0.5544    0.0000 H   0  0  0  0  0  0  0  0  0  0  0  0
    8.2700   -0.5544    0.0000 H   0  0  0  0  0  0  0  0  0  0  0  0
    4.5981   -5.6744    0.0000 H   0  0  0  0  0  0  0  0  0  0  0  0
    6.0010   -5.4844    0.0000 H   0  0  0  0  0  0  0  0  0  0  0  0
    4.2690   -5.4844    0.0000 H   0  0  0  0  0  0  0  0  0  0  0  0
    6.0010   -3.2444    0.0000 H   0  0  0  0  0  0  0  0  0  0  0  0
    4.2690   -3.2444    0.0000 H   0  0  0  0  0  0  0  0  0  0  0  0
    9.9599    1.3919    0.0000 H   0  0  0  0  0  0  0  0  0  0  0  0
    7.0380    4.9844    0.0000 H   0  0  0  0  0  0  0  0  0  0  0  0
    8.2700   -2.1744    0.0000 H   0  0  0  0  0  0  0  0  0  0  0  0
    5.6350    2.5544    0.0000 H   0  0  0  0  0  0  0  0  0  0  0  0
    3.8015   -2.8895    0.0000 H   0  0  0  0  0  0  0  0  0  0  0  0
    3.0044   -2.8895    0.0000 H   0  0  0  0  0  0  0  0  0  0  0  0
    4.2320    3.3644    0.0000 H   0  0  0  0  0  0  0  0  0  0  0  0
    5.6720   -6.6744    0.0000 H   0  0  0  0  0  0  0  0  0  0  0  0
    7.4040   -5.0544    0.0000 H   0  0  0  0  0  0  0  0  0  0  0  0
    3.4030   -5.9844    0.0000 H   0  0  0  0  0  0  0  0  0  0  0  0
    2.0000   -3.5544    0.0000 H   0  0  0  0  0  0  0  0  0  0  0  0
    4.5790   -1.3275    0.0000 H   0  0  0  0  0  0  0  0  0  0  0  0
    3.7320   -1.5544    0.0000 H   0  0  0  0  0  0  0  0  0  0  0  0
    3.9590   -2.4014    0.0000 H   0  0  0  0  0  0  0  0  0  0  0  0
    3.3660    4.8644    0.0000 H   0  0  0  0  0  0  0  0  0  0  0  0
    6.8110    6.1375    0.0000 H   0  0  0  0  0  0  0  0  0  0  0  0
    7.0380    6.9844    0.0000 H   0  0  0  0  0  0  0  0  0  0  0  0
    6.1910    7.2114    0.0000 H   0  0  0  0  0  0  0  0  0  0  0  0
  1 15  1  0  0  0  0
  1 16  1  0  0  0  0
  2 13  1  0  0  0  0
  2 47  1  0  0  0  0
  3 18  1  0  0  0  0
  3 55  1  0  0  0  0
  4 26  1  0  0  0  0
  4 27  1  0  0  0  0
 26  5  1  1  0  0  0
  5 29  1  0  0  0  0
 23  6  1  1  0  0  0
  6 62  1  0  0  0  0
 24  7  1  6  0  0  0
  7 63  1  0  0  0  0
 25  8  1  6  0  0  0
  8 64  1  0  0  0  0
  9 28  1  0  0  0  0
  9 37  1  0  0  0  0
 10 33  1  0  0  0  0
 10 65  1  0  0  0  0
 11 34  1  0  0  0  0
 11 38  1  0  0  0  0
 12 36  1  0  0  0  0
 12 69  1  0  0  0  0
 13 14  1  0  0  0  0
 13 16  1  0  0  0  0
 13 17  1  0  0  0  0
 14 15  1  0  0  0  0
 14 18  1  0  0  0  0
 14 39  1  0  0  0  0
 15 19  1  0  0  0  0
 15 40  1  0  0  0  0
 16 41  1  0  0  0  0
 16 42  1  0  0  0  0
 17 20  1  0  0  0  0
 17 43  1  0  0  0  0
 17 44  1  0  0  0  0
 18 45  1  0  0  0  0
 18 46  1  0  0  0  0
 19 21  2  0  0  0  0
 19 22  1  0  0  0  0
 20 30  2  0  0  0  0
 20 31  1  0  0  0  0
 21 28  1  0  0  0  0
 21 48  1  0  0  0  0
 22 32  2  0  0  0  0
 22 49  1  0  0  0  0
 23 24  1  0  0  0  0
 23 25  1  0  0  0  0
 23 50  1  0  0  0  0
 24 26  1  0  0  0  0
 24 51  1  0  0  0  0
 25 27  1  0  0  0  0
 25 52  1  0  0  0  0
 26 53  1  0  0  0  0
 27 33  1  1  0  0  0
 27 54  1  0  0  0  0
 28 29  2  0  0  0  0
 29 32  1  0  0  0  0
 30 34  1  0  0  0  0
 30 56  1  0  0  0  0
 31 35  2  0  0  0  0
 31 58  1  0  0  0  0
 32 57  1  0  0  0  0
 33 59  1  0  0  0  0
 33 60  1  0  0  0  0
 34 36  2  0  0  0  0
 35 36  1  0  0  0  0
 35 61  1  0  0  0  0
 37 66  1  0  0  0  0
 37 67  1  0  0  0  0
 37 68  1  0  0  0  0
 38 70  1  0  0  0  0
 38 71  1  0  0  0  0
 38 72  1  0  0  0  0
M  END
> <PUBCHEM_COMPOUND_CID>
5320286

> <PUBCHEM_COMPOUND_CANONICALIZED>
1

> <PUBCHEM_CACTVS_COMPLEXITY>
743

> <PUBCHEM_CACTVS_HBOND_ACCEPTOR>
12

> <PUBCHEM_CACTVS_HBOND_DONOR>
7

> <PUBCHEM_CACTVS_ROTATABLE_BOND>
9

> <PUBCHEM_CACTVS_SUBSKEYS>
AAADcfB4PAAAAAAAAAAAAAAAAAAAASAAAAA0YIAAAAAAAAABQAAAGgAACAAADVSwmAMyDoAABgCAAiBCAAACCAAgIAAIiAAGiIgdNiKGMRqieCOlwBEPuAfA4PwOoAABAAAAQABAAAIAAACAAAAAAAAAAA==

> <PUBCHEM_IUPAC_OPENEYE_NAME>
(2S,3R,4S,5S,6R)-2-[4-[4-hydroxy-4-[(4-hydroxy-3-methoxy-phenyl)methyl]-3-(hydroxymethyl)tetrahydrofuran-2-yl]-2-methoxy-phenoxy]-6-(hydroxymethyl)tetrahydropyran-3,4,5-triol

> <PUBCHEM_IUPAC_CAS_NAME>
(2S,3R,4S,5S,6R)-2-[4-[4-hydroxy-4-[(4-hydroxy-3-methoxyphenyl)methyl]-3-(hydroxymethyl)-2-oxolanyl]-2-methoxyphenoxy]-6-(hydroxymethyl)oxane-3,4,5-triol

> <PUBCHEM_IUPAC_NAME_MARKUP>
(2<I>S</I>,3<I>R</I>,4<I>S</I>,5<I>S</I>,6<I>R</I>)-2-[4-[4-hydroxy-4-[(4-hydroxy-3-methoxyphenyl)methyl]-3-(hydroxymethyl)oxolan-2-yl]-2-methoxyphenoxy]-6-(hydroxymethyl)oxane-3,4,5-triol

> <PUBCHEM_IUPAC_NAME>
(2S,3R,4S,5S,6R)-2-[4-[4-hydroxy-4-[(4-hydroxy-3-methoxyphenyl)methyl]-3-(hydroxymethyl)oxolan-2-yl]-2-methoxyphenoxy]-6-(hydroxymethyl)oxane-3,4,5-triol

> <PUBCHEM_IUPAC_SYSTEMATIC_NAME>
(2R,3S,4S,5R,6S)-2-(hydroxymethyl)-6-[4-[3-(hydroxymethyl)-4-[(3-methoxy-4-oxidanyl-phenyl)methyl]-4-oxidanyl-oxolan-2-yl]-2-methoxy-phenoxy]oxane-3,4,5-triol

> <PUBCHEM_IUPAC_TRADITIONAL_NAME>
(2S,3R,4S,5S,6R)-2-[4-(4-hydroxy-3-methylol-4-vanillyl-tetrahydrofuran-2-yl)-2-methoxy-phenoxy]-6-methylol-tetrahydropyran-3,4,5-triol

> <PUBCHEM_IUPAC_INCHI>
InChI=1S/C26H34O12/c1-34-18-7-13(3-5-16(18)29)9-26(33)12-36-24(15(26)10-27)14-4-6-17(19(8-14)35-2)37-25-23(32)22(31)21(30)20(11-28)38-25/h3-8,15,20-25,27-33H,9-12H2,1-2H3/t15?,20-,21-,22+,23-,24?,25-,26?/m1/s1

> <PUBCHEM_IUPAC_INCHIKEY>
OXHVZEZYYQQCRJ-DULKRDRMSA-N

> <PUBCHEM_XLOGP3_AA>
0.1

> <PUBCHEM_EXACT_MASS>
538.20502652

> <PUBCHEM_MOLECULAR_FORMULA>
C26H34O12

> <PUBCHEM_MOLECULAR_WEIGHT>
538.5

> <PUBCHEM_OPENEYE_CAN_SMILES>
COC1=C(C=CC(=C1)CC2(COC(C2CO)C3=CC(=C(C=C3)OC4C(C(C(C(O4)CO)O)O)O)OC)O)O

> <PUBCHEM_OPENEYE_ISO_SMILES>
COC1=C(C=CC(=C1)CC2(COC(C2CO)C3=CC(=C(C=C3)O[C@H]4[C@@H]([C@H]([C@@H]([C@H](O4)CO)O)O)O)OC)O)O

> <PUBCHEM_CACTVS_TPSA>
188

> <PUBCHEM_MONOISOTOPIC_WEIGHT>
538.20502652

> <PUBCHEM_TOTAL_CHARGE>
0

> <PUBCHEM_HEAVY_ATOM_COUNT>
38

> <PUBCHEM_ATOM_DEF_STEREO_COUNT>
5

> <PUBCHEM_ATOM_UDEF_STEREO_COUNT>
3

> <PUBCHEM_BOND_DEF_STEREO_COUNT>
0

> <PUBCHEM_BOND_UDEF_STEREO_COUNT>
0

> <PUBCHEM_ISOTOPIC_ATOM_COUNT>
0

> <PUBCHEM_COMPONENT_COUNT>
1

> <PUBCHEM_CACTVS_TAUTO_COUNT>
-1

> <PUBCHEM_COORDINATE_TYPE>
1
5
255

> <PUBCHEM_BONDANNOTATIONS>
14  18  3
15  19  3
19  21  8
19  22  8
13  2  3
20  30  8
20  31  8
21  28  8
22  32  8
27  33  5
28  29  8
29  32  8
30  34  8
31  35  8
34  36  8
35  36  8
26  5  5
23  6  5
24  7  6
25  8  6

$$$$
