 
  -OEChem-10192104092D

 39 41  0     0  0  0  0  0  0999 V2000
    4.2690   -3.3418    0.0000 O   0  0  0  0  0  0  0  0  0  0  0  0
    6.0174   -3.3764    0.0000 O   0  0  0  0  0  0  0  0  0  0  0  0
    2.5369   -0.3418    0.0000 O   0  0  0  0  0  0  0  0  0  0  0  0
    4.2623    2.6726    0.0000 O   0  0  0  0  0  0  0  0  0  0  0  0
    7.7262    2.7127    0.0000 O   0  0  0  0  0  0  0  0  0  0  0  0
    5.1350   -0.8418    0.0000 C   0  0  0  0  0  0  0  0  0  0  0  0
    6.0290   -0.3071    0.0000 C   0  0  0  0  0  0  0  0  0  0  0  0
    5.1350   -1.8418    0.0000 C   0  0  0  0  0  0  0  0  0  0  0  0
    6.0174    0.6928    0.0000 C   0  0  0  0  0  0  0  0  0  0  0  0
    4.2690   -2.3418    0.0000 C   0  0  0  0  0  0  0  0  0  0  0  0
    4.2690   -0.3418    0.0000 C   0  0  0  0  0  0  0  0  0  0  0  0
    3.4030   -1.8418    0.0000 C   0  0  0  0  0  0  0  0  0  0  0  0
    6.0290   -2.3765    0.0000 C   0  0  0  0  0  0  0  0  0  0  0  0
    6.9350   -0.8210    0.0000 C   0  0  0  0  0  0  0  0  0  0  0  0
    3.4030   -0.8418    0.0000 C   0  0  0  0  0  0  0  0  0  0  0  0
    6.9350   -1.8626    0.0000 C   0  0  0  0  0  0  0  0  0  0  0  0
    6.8776    1.2028    0.0000 C   0  0  0  0  0  0  0  0  0  0  0  0
    5.1456    1.1827    0.0000 C   0  0  0  0  0  0  0  0  0  0  0  0
    5.9943    2.6927    0.0000 C   0  0  0  0  0  0  0  0  0  0  0  0
    5.1341    2.1827    0.0000 C   0  0  0  0  0  0  0  0  0  0  0  0
    6.8660    2.2027    0.0000 C   0  0  0  0  0  0  0  0  0  0  0  0
    2.5369   -2.3418    0.0000 C   0  0  0  0  0  0  0  0  0  0  0  0
    5.9827    3.6926    0.0000 C   0  0  0  0  0  0  0  0  0  0  0  0
    4.2690    0.2782    0.0000 H   0  0  0  0  0  0  0  0  0  0  0  0
    7.4708   -0.5089    0.0000 H   0  0  0  0  0  0  0  0  0  0  0  0
    7.4708   -2.1747    0.0000 H   0  0  0  0  0  0  0  0  0  0  0  0
    7.4181    0.8990    0.0000 H   0  0  0  0  0  0  0  0  0  0  0  0
    4.6123    0.8666    0.0000 H   0  0  0  0  0  0  0  0  0  0  0  0
    2.2269   -1.8049    0.0000 H   0  0  0  0  0  0  0  0  0  0  0  0
    2.0000   -2.6518    0.0000 H   0  0  0  0  0  0  0  0  0  0  0  0
    2.8469   -2.8787    0.0000 H   0  0  0  0  0  0  0  0  0  0  0  0
    6.6027    3.6998    0.0000 H   0  0  0  0  0  0  0  0  0  0  0  0
    5.9755    4.3126    0.0000 H   0  0  0  0  0  0  0  0  0  0  0  0
    5.3627    3.6854    0.0000 H   0  0  0  0  0  0  0  0  0  0  0  0
    3.7320   -3.6518    0.0000 H   0  0  0  0  0  0  0  0  0  0  0  0
    6.5507   -3.6926    0.0000 H   0  0  0  0  0  0  0  0  0  0  0  0
    2.0000   -0.6518    0.0000 H   0  0  0  0  0  0  0  0  0  0  0  0
    4.2552    3.2926    0.0000 H   0  0  0  0  0  0  0  0  0  0  0  0
    8.2667    2.4089    0.0000 H   0  0  0  0  0  0  0  0  0  0  0  0
  1 10  1  0  0  0  0
  1 35  1  0  0  0  0
  2 13  1  0  0  0  0
  2 36  1  0  0  0  0
  3 15  1  0  0  0  0
  3 37  1  0  0  0  0
  4 20  1  0  0  0  0
  4 38  1  0  0  0  0
  5 21  1  0  0  0  0
  5 39  1  0  0  0  0
  6  7  2  0  0  0  0
  6  8  1  0  0  0  0
  6 11  1  0  0  0  0
  7  9  1  0  0  0  0
  7 14  1  0  0  0  0
  8 10  1  0  0  0  0
  8 13  2  0  0  0  0
  9 17  2  0  0  0  0
  9 18  1  0  0  0  0
 10 12  2  0  0  0  0
 11 15  2  0  0  0  0
 11 24  1  0  0  0  0
 12 15  1  0  0  0  0
 12 22  1  0  0  0  0
 13 16  1  0  0  0  0
 14 16  2  0  0  0  0
 14 25  1  0  0  0  0
 16 26  1  0  0  0  0
 17 21  1  0  0  0  0
 17 27  1  0  0  0  0
 18 20  2  0  0  0  0
 18 28  1  0  0  0  0
 19 20  1  0  0  0  0
 19 21  2  0  0  0  0
 19 23  1  0  0  0  0
 22 29  1  0  0  0  0
 22 30  1  0  0  0  0
 22 31  1  0  0  0  0
 23 32  1  0  0  0  0
 23 33  1  0  0  0  0
 23 34  1  0  0  0  0
M  END
> <PUBCHEM_COMPOUND_CID>
53889008

> <PUBCHEM_COMPOUND_CANONICALIZED>
1

> <PUBCHEM_CACTVS_COMPLEXITY>
404

> <PUBCHEM_CACTVS_HBOND_ACCEPTOR>
5

> <PUBCHEM_CACTVS_HBOND_DONOR>
5

> <PUBCHEM_CACTVS_ROTATABLE_BOND>
1

> <PUBCHEM_CACTVS_SUBSKEYS>
AAADceB4OAAAAAAAAAAAAAAAAAAAAAAAAAAwYMAAAAAAAADBVAAAGgAACAAADASAmAAyBsAAAgCAAiBCAAACAAAgIAAIiAAGCIgIJyKCERKAcAAlwBUImAeA4PQO4AADCAAYAADAAAYQADAAAAAAAAAAAA==

> <PUBCHEM_IUPAC_OPENEYE_NAME>
5-(3,5-dihydroxy-4-methyl-phenyl)-2-methyl-naphthalene-1,3,8-triol

> <PUBCHEM_IUPAC_CAS_NAME>
5-(3,5-dihydroxy-4-methylphenyl)-2-methylnaphthalene-1,3,8-triol

> <PUBCHEM_IUPAC_NAME_MARKUP>
5-(3,5-dihydroxy-4-methylphenyl)-2-methylnaphthalene-1,3,8-triol

> <PUBCHEM_IUPAC_NAME>
5-(3,5-dihydroxy-4-methylphenyl)-2-methylnaphthalene-1,3,8-triol

> <PUBCHEM_IUPAC_SYSTEMATIC_NAME>
2-methyl-5-[4-methyl-3,5-bis(oxidanyl)phenyl]naphthalene-1,3,8-triol

> <PUBCHEM_IUPAC_TRADITIONAL_NAME>
5-(3,5-dihydroxy-4-methyl-phenyl)-2-methyl-naphthalene-1,3,8-triol

> <PUBCHEM_IUPAC_INCHI>
InChI=1S/C18H16O5/c1-8-14(20)5-10(6-15(8)21)11-3-4-13(19)17-12(11)7-16(22)9(2)18(17)23/h3-7,19-23H,1-2H3

> <PUBCHEM_IUPAC_INCHIKEY>
HPDXDJJVIJXCFG-UHFFFAOYSA-N

> <PUBCHEM_XLOGP3_AA>
4.3

> <PUBCHEM_EXACT_MASS>
312.09977361

> <PUBCHEM_MOLECULAR_FORMULA>
C18H16O5

> <PUBCHEM_MOLECULAR_WEIGHT>
312.3

> <PUBCHEM_OPENEYE_CAN_SMILES>
CC1=C(C=C(C=C1O)C2=C3C=C(C(=C(C3=C(C=C2)O)O)C)O)O

> <PUBCHEM_OPENEYE_ISO_SMILES>
CC1=C(C=C(C=C1O)C2=C3C=C(C(=C(C3=C(C=C2)O)O)C)O)O

> <PUBCHEM_CACTVS_TPSA>
101

> <PUBCHEM_MONOISOTOPIC_WEIGHT>
312.09977361

> <PUBCHEM_TOTAL_CHARGE>
0

> <PUBCHEM_HEAVY_ATOM_COUNT>
23

> <PUBCHEM_ATOM_DEF_STEREO_COUNT>
0

> <PUBCHEM_ATOM_UDEF_STEREO_COUNT>
0

> <PUBCHEM_BOND_DEF_STEREO_COUNT>
0

> <PUBCHEM_BOND_UDEF_STEREO_COUNT>
0

> <PUBCHEM_ISOTOPIC_ATOM_COUNT>
0

> <PUBCHEM_COMPONENT_COUNT>
1

> <PUBCHEM_CACTVS_TAUTO_COUNT>
-1

> <PUBCHEM_COORDINATE_TYPE>
1
5
255

> <PUBCHEM_BONDANNOTATIONS>
10  12  8
11  15  8
12  15  8
13  16  8
14  16  8
17  21  8
18  20  8
19  20  8
19  21  8
6  11  8
6  7  8
6  8  8
7  14  8
8  10  8
8  13  8
9  17  8
9  18  8

$$$$
