 
  -OEChem-10192104372D

 50 52  0     1  0  0  0  0  0999 V2000
    6.0010    2.5000    0.0000 O   0  0  0  0  0  0  0  0  0  0  0  0
    6.0010   -0.5000    0.0000 O   0  0  0  0  0  0  0  0  0  0  0  0
    7.7331    0.5000    0.0000 O   0  0  0  0  0  0  0  0  0  0  0  0
    4.2690    0.5000    0.0000 O   0  0  0  0  0  0  0  0  0  0  0  0
    7.7331    2.5000    0.0000 O   0  0  0  0  0  0  0  0  0  0  0  0
    4.2690    3.5000    0.0000 O   0  0  0  0  0  0  0  0  0  0  0  0
    4.2690   -3.5000    0.0000 O   0  0  0  0  0  0  0  0  0  0  0  0
    2.5369   -0.5000    0.0000 O   0  0  0  0  0  0  0  0  0  0  0  0
    9.4651    3.5000    0.0000 O   0  0  0  0  0  0  0  0  0  0  0  0
   11.1972    0.5000    0.0000 O   0  0  0  0  0  0  0  0  0  0  0  0
    2.5369   -2.5000    0.0000 O   0  0  0  0  0  0  0  0  0  0  0  0
   11.1972    2.5000    0.0000 O   0  0  0  0  0  0  0  0  0  0  0  0
    6.0010    0.5000    0.0000 C   0  0  1  0  0  0  0  0  0  0  0  0
    5.1350    1.0000    0.0000 C   0  0  1  0  0  0  0  0  0  0  0  0
    6.8671    1.0000    0.0000 C   0  0  2  0  0  0  0  0  0  0  0  0
    5.1350    2.0000    0.0000 C   0  0  1  0  0  0  0  0  0  0  0  0
    6.8671    2.0000    0.0000 C   0  0  3  0  0  0  0  0  0  0  0  0
    4.2690    2.5000    0.0000 C   0  0  0  0  0  0  0  0  0  0  0  0
    5.1350   -1.0000    0.0000 C   0  0  0  0  0  0  0  0  0  0  0  0
    8.5991    1.0000    0.0000 C   0  0  0  0  0  0  0  0  0  0  0  0
    4.2690   -0.5000    0.0000 C   0  0  0  0  0  0  0  0  0  0  0  0
    5.1350   -2.0000    0.0000 C   0  0  0  0  0  0  0  0  0  0  0  0
    9.4651    0.5000    0.0000 C   0  0  0  0  0  0  0  0  0  0  0  0
    8.5991    2.0000    0.0000 C   0  0  0  0  0  0  0  0  0  0  0  0
    4.2690   -2.5000    0.0000 C   0  0  0  0  0  0  0  0  0  0  0  0
    3.4030   -1.0000    0.0000 C   0  0  0  0  0  0  0  0  0  0  0  0
    9.4651    2.5000    0.0000 C   0  0  0  0  0  0  0  0  0  0  0  0
   10.3312    1.0000    0.0000 C   0  0  0  0  0  0  0  0  0  0  0  0
    3.4030   -2.0000    0.0000 C   0  0  0  0  0  0  0  0  0  0  0  0
   10.3312    2.0000    0.0000 C   0  0  0  0  0  0  0  0  0  0  0  0
    5.4641    0.1900    0.0000 H   0  0  0  0  0  0  0  0  0  0  0  0
    4.5981    1.3100    0.0000 H   0  0  0  0  0  0  0  0  0  0  0  0
    6.8671    0.3800    0.0000 H   0  0  0  0  0  0  0  0  0  0  0  0
    5.1350    2.6200    0.0000 H   0  0  0  0  0  0  0  0  0  0  0  0
    7.4040    1.6900    0.0000 H   0  0  0  0  0  0  0  0  0  0  0  0
    3.6584    2.6077    0.0000 H   0  0  0  0  0  0  0  0  0  0  0  0
    4.0569    1.9174    0.0000 H   0  0  0  0  0  0  0  0  0  0  0  0
    3.7320    0.8100    0.0000 H   0  0  0  0  0  0  0  0  0  0  0  0
    7.7331    3.1200    0.0000 H   0  0  0  0  0  0  0  0  0  0  0  0
    3.7320    3.8100    0.0000 H   0  0  0  0  0  0  0  0  0  0  0  0
    4.2690    0.1200    0.0000 H   0  0  0  0  0  0  0  0  0  0  0  0
    5.6720   -2.3100    0.0000 H   0  0  0  0  0  0  0  0  0  0  0  0
    9.4651   -0.1200    0.0000 H   0  0  0  0  0  0  0  0  0  0  0  0
    8.0622    2.3100    0.0000 H   0  0  0  0  0  0  0  0  0  0  0  0
    4.8059   -3.8100    0.0000 H   0  0  0  0  0  0  0  0  0  0  0  0
    2.0000   -0.8100    0.0000 H   0  0  0  0  0  0  0  0  0  0  0  0
   10.0021    3.8100    0.0000 H   0  0  0  0  0  0  0  0  0  0  0  0
   11.1972   -0.1200    0.0000 H   0  0  0  0  0  0  0  0  0  0  0  0
    2.5369   -3.1200    0.0000 H   0  0  0  0  0  0  0  0  0  0  0  0
   11.7341    2.1900    0.0000 H   0  0  0  0  0  0  0  0  0  0  0  0
  1 16  1  0  0  0  0
  1 17  1  0  0  0  0
 13  2  1  1  0  0  0
  2 19  1  0  0  0  0
 15  3  1  6  0  0  0
  3 20  1  0  0  0  0
 14  4  1  6  0  0  0
  4 38  1  0  0  0  0
  5 17  1  0  0  0  0
  5 39  1  0  0  0  0
  6 18  1  0  0  0  0
  6 40  1  0  0  0  0
  7 25  1  0  0  0  0
  7 45  1  0  0  0  0
  8 26  1  0  0  0  0
  8 46  1  0  0  0  0
  9 27  1  0  0  0  0
  9 47  1  0  0  0  0
 10 28  1  0  0  0  0
 10 48  1  0  0  0  0
 11 29  1  0  0  0  0
 11 49  1  0  0  0  0
 12 30  1  0  0  0  0
 12 50  1  0  0  0  0
 13 14  1  0  0  0  0
 13 15  1  0  0  0  0
 13 31  1  0  0  0  0
 14 16  1  0  0  0  0
 14 32  1  0  0  0  0
 15 17  1  0  0  0  0
 15 33  1  0  0  0  0
 16 18  1  1  0  0  0
 16 34  1  0  0  0  0
 17 35  1  0  0  0  0
 18 36  1  0  0  0  0
 18 37  1  0  0  0  0
 19 21  2  0  0  0  0
 19 22  1  0  0  0  0
 20 23  2  0  0  0  0
 20 24  1  0  0  0  0
 21 26  1  0  0  0  0
 21 41  1  0  0  0  0
 22 25  2  0  0  0  0
 22 42  1  0  0  0  0
 23 28  1  0  0  0  0
 23 43  1  0  0  0  0
 24 27  2  0  0  0  0
 24 44  1  0  0  0  0
 25 29  1  0  0  0  0
 26 29  2  0  0  0  0
 27 30  1  0  0  0  0
 28 30  2  0  0  0  0
M  END
> <PUBCHEM_COMPOUND_CID>
102512215

> <PUBCHEM_COMPOUND_CANONICALIZED>
1

> <PUBCHEM_CACTVS_COMPLEXITY>
527

> <PUBCHEM_CACTVS_HBOND_ACCEPTOR>
12

> <PUBCHEM_CACTVS_HBOND_DONOR>
9

> <PUBCHEM_CACTVS_ROTATABLE_BOND>
5

> <PUBCHEM_CACTVS_SUBSKEYS>
AAADceB4PAAAAAAAAAAAAAAAAAAAAAAAAAA0YIAAAAAAAAABQAAAGgAACAAACBSwkAMwDoAABgCAACBCAAACCAAgIAAAiAAGiIgdNyKGMRqCeCGlwBUPuAfAYAwAAQAACAAAQAACAAAQAACAAAAAAAAAAA==

> <PUBCHEM_IUPAC_OPENEYE_NAME>
5-[(3R,4S,5R,6R)-2,5-dihydroxy-6-(hydroxymethyl)-3-(3,4,5-trihydroxyphenoxy)tetrahydropyran-4-yl]oxybenzene-1,2,3-triol

> <PUBCHEM_IUPAC_CAS_NAME>
5-[[(3R,4S,5R,6R)-2,5-dihydroxy-6-(hydroxymethyl)-3-(3,4,5-trihydroxyphenoxy)-4-oxanyl]oxy]benzene-1,2,3-triol

> <PUBCHEM_IUPAC_NAME_MARKUP>
5-[(3<I>R</I>,4<I>S</I>,5<I>R</I>,6<I>R</I>)-2,5-dihydroxy-6-(hydroxymethyl)-3-(3,4,5-trihydroxyphenoxy)oxan-4-yl]oxybenzene-1,2,3-triol

> <PUBCHEM_IUPAC_NAME>
5-[(3R,4S,5R,6R)-2,5-dihydroxy-6-(hydroxymethyl)-3-(3,4,5-trihydroxyphenoxy)oxan-4-yl]oxybenzene-1,2,3-triol

> <PUBCHEM_IUPAC_SYSTEMATIC_NAME>
5-[(2R,3R,4S,5R)-2-(hydroxymethyl)-3,6-bis(oxidanyl)-5-[3,4,5-tris(oxidanyl)phenoxy]oxan-4-yl]oxybenzene-1,2,3-triol

> <PUBCHEM_IUPAC_TRADITIONAL_NAME>
5-[(3R,4S,5R,6R)-2,5-dihydroxy-6-methylol-3-(3,4,5-trihydroxyphenoxy)tetrahydropyran-4-yl]oxypyrogallol

> <PUBCHEM_IUPAC_INCHI>
InChI=1S/C18H20O12/c19-5-12-15(26)16(28-6-1-8(20)13(24)9(21)2-6)17(18(27)30-12)29-7-3-10(22)14(25)11(23)4-7/h1-4,12,15-27H,5H2/t12-,15-,16+,17-,18?/m1/s1

> <PUBCHEM_IUPAC_INCHIKEY>
XPLWIBBKBWHJOQ-OFSFNKJUSA-N

> <PUBCHEM_XLOGP3_AA>
0

> <PUBCHEM_EXACT_MASS>
428.09547607

> <PUBCHEM_MOLECULAR_FORMULA>
C18H20O12

> <PUBCHEM_MOLECULAR_WEIGHT>
428.3

> <PUBCHEM_OPENEYE_CAN_SMILES>
C1=C(C=C(C(=C1O)O)O)OC2C(C(OC(C2OC3=CC(=C(C(=C3)O)O)O)O)CO)O

> <PUBCHEM_OPENEYE_ISO_SMILES>
C1=C(C=C(C(=C1O)O)O)O[C@H]2[C@@H]([C@H](OC([C@@H]2OC3=CC(=C(C(=C3)O)O)O)O)CO)O

> <PUBCHEM_CACTVS_TPSA>
210

> <PUBCHEM_MONOISOTOPIC_WEIGHT>
428.09547607

> <PUBCHEM_TOTAL_CHARGE>
0

> <PUBCHEM_HEAVY_ATOM_COUNT>
30

> <PUBCHEM_ATOM_DEF_STEREO_COUNT>
4

> <PUBCHEM_ATOM_UDEF_STEREO_COUNT>
1

> <PUBCHEM_BOND_DEF_STEREO_COUNT>
0

> <PUBCHEM_BOND_UDEF_STEREO_COUNT>
0

> <PUBCHEM_ISOTOPIC_ATOM_COUNT>
0

> <PUBCHEM_COMPONENT_COUNT>
1

> <PUBCHEM_CACTVS_TAUTO_COUNT>
-1

> <PUBCHEM_COORDINATE_TYPE>
1
5
255

> <PUBCHEM_BONDANNOTATIONS>
16  18  5
19  21  8
19  22  8
13  2  5
20  23  8
20  24  8
21  26  8
22  25  8
23  28  8
24  27  8
25  29  8
26  29  8
27  30  8
28  30  8
15  3  6
14  4  6
17  5  3

$$$$
