 
  -OEChem-10192104052D

 44 48  0     1  0  0  0  0  0999 V2000
    8.3892    0.6866    0.0000 O   0  0  0  0  0  0  0  0  0  0  0  0
    6.1087   -1.3667    0.0000 O   0  0  0  0  0  0  0  0  0  0  0  0
    8.4937   -2.3079    0.0000 O   0  0  0  0  0  0  0  0  0  0  0  0
   12.0380   -0.5032    0.0000 O   0  0  0  0  0  0  0  0  0  0  0  0
   12.0380   -2.1126    0.0000 O   0  0  0  0  0  0  0  0  0  0  0  0
    4.2667    2.6188    0.0000 O   0  0  0  0  0  0  0  0  0  0  0  0
    2.5364    1.6158    0.0000 O   0  0  0  0  0  0  0  0  0  0  0  0
    7.5802   -0.7146    0.0000 C   0  0  1  0  0  0  0  0  0  0  0  0
    6.9110    0.0285    0.0000 C   0  0  1  0  0  0  0  0  0  0  0  0
    8.4937   -0.3079    0.0000 C   0  0  2  0  0  0  0  0  0  0  0  0
    6.0040   -0.3782    0.0000 C   0  0  3  0  0  0  0  0  0  0  0  0
    7.4110    0.8945    0.0000 C   0  0  0  0  0  0  0  0  0  0  0  0
    7.0809   -1.5742    0.0000 C   0  0  0  0  0  0  0  0  0  0  0  0
    9.3597   -0.8079    0.0000 C   0  0  0  0  0  0  0  0  0  0  0  0
    5.1371    0.1203    0.0000 C   0  0  0  0  0  0  0  0  0  0  0  0
    9.3597   -1.8079    0.0000 C   0  0  0  0  0  0  0  0  0  0  0  0
   10.2258   -0.3079    0.0000 C   0  0  0  0  0  0  0  0  0  0  0  0
    5.1353    1.1203    0.0000 C   0  0  0  0  0  0  0  0  0  0  0  0
    4.2719   -0.3812    0.0000 C   0  0  0  0  0  0  0  0  0  0  0  0
   11.0918   -0.8079    0.0000 C   0  0  0  0  0  0  0  0  0  0  0  0
   10.2258   -2.3079    0.0000 C   0  0  0  0  0  0  0  0  0  0  0  0
   11.0918   -1.8079    0.0000 C   0  0  0  0  0  0  0  0  0  0  0  0
    4.2684    1.6188    0.0000 C   0  0  0  0  0  0  0  0  0  0  0  0
    3.4050    0.1173    0.0000 C   0  0  0  0  0  0  0  0  0  0  0  0
    3.4033    1.1173    0.0000 C   0  0  0  0  0  0  0  0  0  0  0  0
   12.6216   -1.3079    0.0000 C   0  0  0  0  0  0  0  0  0  0  0  0
    8.1481   -1.3470    0.0000 H   0  0  0  0  0  0  0  0  0  0  0  0
    6.3415    0.6594    0.0000 H   0  0  0  0  0  0  0  0  0  0  0  0
    9.2066    0.1550    0.0000 H   0  0  0  0  0  0  0  0  0  0  0  0
    5.4844   -0.7165    0.0000 H   0  0  0  0  0  0  0  0  0  0  0  0
    7.6026    1.4842    0.0000 H   0  0  0  0  0  0  0  0  0  0  0  0
    6.8446    1.1467    0.0000 H   0  0  0  0  0  0  0  0  0  0  0  0
    6.8885   -2.1636    0.0000 H   0  0  0  0  0  0  0  0  0  0  0  0
    7.6468   -1.8276    0.0000 H   0  0  0  0  0  0  0  0  0  0  0  0
   10.2258    0.3121    0.0000 H   0  0  0  0  0  0  0  0  0  0  0  0
    5.6717    1.4313    0.0000 H   0  0  0  0  0  0  0  0  0  0  0  0
    4.2730   -1.0012    0.0000 H   0  0  0  0  0  0  0  0  0  0  0  0
   10.2258   -2.9279    0.0000 H   0  0  0  0  0  0  0  0  0  0  0  0
    2.8686   -0.1936    0.0000 H   0  0  0  0  0  0  0  0  0  0  0  0
    8.4937   -2.9279    0.0000 H   0  0  0  0  0  0  0  0  0  0  0  0
   13.0825   -1.7226    0.0000 H   0  0  0  0  0  0  0  0  0  0  0  0
   13.0825   -0.8932    0.0000 H   0  0  0  0  0  0  0  0  0  0  0  0
    3.7292    2.9279    0.0000 H   0  0  0  0  0  0  0  0  0  0  0  0
    2.0000    1.3049    0.0000 H   0  0  0  0  0  0  0  0  0  0  0  0
  1 10  1  0  0  0  0
  1 12  1  0  0  0  0
  2 11  1  0  0  0  0
  2 13  1  0  0  0  0
  3 16  1  0  0  0  0
  3 40  1  0  0  0  0
  4 20  1  0  0  0  0
  4 26  1  0  0  0  0
  5 22  1  0  0  0  0
  5 26  1  0  0  0  0
  6 23  1  0  0  0  0
  6 43  1  0  0  0  0
  7 25  1  0  0  0  0
  7 44  1  0  0  0  0
  8  9  1  0  0  0  0
  8 10  1  0  0  0  0
  8 13  1  0  0  0  0
  8 27  1  6  0  0  0
  9 11  1  0  0  0  0
  9 12  1  0  0  0  0
  9 28  1  6  0  0  0
 10 14  1  0  0  0  0
 10 29  1  6  0  0  0
 11 15  1  0  0  0  0
 11 30  1  0  0  0  0
 12 31  1  0  0  0  0
 12 32  1  0  0  0  0
 13 33  1  0  0  0  0
 13 34  1  0  0  0  0
 14 16  1  0  0  0  0
 14 17  2  0  0  0  0
 15 18  2  0  0  0  0
 15 19  1  0  0  0  0
 16 21  2  0  0  0  0
 17 20  1  0  0  0  0
 17 35  1  0  0  0  0
 18 23  1  0  0  0  0
 18 36  1  0  0  0  0
 19 24  2  0  0  0  0
 19 37  1  0  0  0  0
 20 22  2  0  0  0  0
 21 22  1  0  0  0  0
 21 38  1  0  0  0  0
 23 25  2  0  0  0  0
 24 25  1  0  0  0  0
 24 39  1  0  0  0  0
 26 41  1  0  0  0  0
 26 42  1  0  0  0  0
M  END
> <PUBCHEM_COMPOUND_CID>
11233653

> <PUBCHEM_COMPOUND_CANONICALIZED>
1

> <PUBCHEM_CACTVS_COMPLEXITY>
516

> <PUBCHEM_CACTVS_HBOND_ACCEPTOR>
7

> <PUBCHEM_CACTVS_HBOND_DONOR>
3

> <PUBCHEM_CACTVS_ROTATABLE_BOND>
2

> <PUBCHEM_CACTVS_SUBSKEYS>
AAADceB4OAAAAAAAAAAAAAAAAAAAASJEgAAwYAAAAAASAEgBQAAAGgAACAAADRSgmAMwDoAABgCAAiBCAAACCAAgIAAIiAAGiIgdJyKGMRqicCMlwBUPuAfA4PwOoQABCAAIQABCAAIQABCAAAAAAAAAAA==

> <PUBCHEM_IUPAC_OPENEYE_NAME>
4-[(3aR,6R,6aR)-6-(6-hydroxy-1,3-benzodioxol-5-yl)-1,3,3a,4,6,6a-hexahydrofuro[3,4-c]furan-3-yl]benzene-1,2-diol

> <PUBCHEM_IUPAC_CAS_NAME>
4-[(3aR,6R,6aR)-6-(6-hydroxy-1,3-benzodioxol-5-yl)-1,3,3a,4,6,6a-hexahydrofuro[3,4-c]furan-3-yl]benzene-1,2-diol

> <PUBCHEM_IUPAC_NAME_MARKUP>
4-[(3<I>a</I><I>R</I>,6<I>R</I>,6<I>a</I><I>R</I>)-6-(6-hydroxy-1,3-benzodioxol-5-yl)-1,3,3<I>a</I>,4,6,6<I>a</I>-hexahydrofuro[3,4-c]furan-3-yl]benzene-1,2-diol

> <PUBCHEM_IUPAC_NAME>
4-[(3aR,6R,6aR)-6-(6-hydroxy-1,3-benzodioxol-5-yl)-1,3,3a,4,6,6a-hexahydrofuro[3,4-c]furan-3-yl]benzene-1,2-diol

> <PUBCHEM_IUPAC_SYSTEMATIC_NAME>
4-[(3aR,6R,6aR)-6-(6-oxidanyl-1,3-benzodioxol-5-yl)-1,3,3a,4,6,6a-hexahydrofuro[3,4-c]furan-3-yl]benzene-1,2-diol

> <PUBCHEM_IUPAC_TRADITIONAL_NAME>
4-[(3aR,6R,6aR)-6-(6-hydroxy-1,3-benzodioxol-5-yl)-1,3,3a,4,6,6a-hexahydrofuro[3,4-c]furan-3-yl]pyrocatechol

> <PUBCHEM_IUPAC_INCHI>
InChI=1S/C19H18O7/c20-13-2-1-9(3-15(13)22)18-11-6-24-19(12(11)7-23-18)10-4-16-17(5-14(10)21)26-8-25-16/h1-5,11-12,18-22H,6-8H2/t11-,12-,18?,19-/m0/s1

> <PUBCHEM_IUPAC_INCHIKEY>
JSXOGYPFEHLUDZ-FUOPTPTASA-N

> <PUBCHEM_XLOGP3_AA>
1.8

> <PUBCHEM_EXACT_MASS>
358.10525291

> <PUBCHEM_MOLECULAR_FORMULA>
C19H18O7

> <PUBCHEM_MOLECULAR_WEIGHT>
358.3

> <PUBCHEM_OPENEYE_CAN_SMILES>
C1C2C(COC2C3=CC4=C(C=C3O)OCO4)C(O1)C5=CC(=C(C=C5)O)O

> <PUBCHEM_OPENEYE_ISO_SMILES>
C1[C@H]2[C@H](CO[C@H]2C3=CC4=C(C=C3O)OCO4)C(O1)C5=CC(=C(C=C5)O)O

> <PUBCHEM_CACTVS_TPSA>
97.6

> <PUBCHEM_MONOISOTOPIC_WEIGHT>
358.10525291

> <PUBCHEM_TOTAL_CHARGE>
0

> <PUBCHEM_HEAVY_ATOM_COUNT>
26

> <PUBCHEM_ATOM_DEF_STEREO_COUNT>
3

> <PUBCHEM_ATOM_UDEF_STEREO_COUNT>
1

> <PUBCHEM_BOND_DEF_STEREO_COUNT>
0

> <PUBCHEM_BOND_UDEF_STEREO_COUNT>
0

> <PUBCHEM_ISOTOPIC_ATOM_COUNT>
0

> <PUBCHEM_COMPONENT_COUNT>
1

> <PUBCHEM_CACTVS_TAUTO_COUNT>
-1

> <PUBCHEM_COORDINATE_TYPE>
1
5
255

> <PUBCHEM_BONDANNOTATIONS>
10  29  6
11  15  3
14  16  8
14  17  8
15  18  8
15  19  8
16  21  8
17  20  8
18  23  8
19  24  8
20  22  8
21  22  8
23  25  8
24  25  8
8  27  6
9  28  6

$$$$
