 
  -OEChem-10192104172D

 67 69  0     1  0  0  0  0  0999 V2000
    6.8671   -2.0950    0.0000 O   0  0  0  0  0  0  0  0  0  0  0  0
    6.0010    0.4050    0.0000 O   0  0  0  0  0  0  0  0  0  0  0  0
    5.1350   -2.0950    0.0000 O   0  0  0  0  0  0  0  0  0  0  0  0
    8.5991   -1.0950    0.0000 O   0  0  0  0  0  0  0  0  0  0  0  0
    6.8671    1.9050    0.0000 O   0  0  0  0  0  0  0  0  0  0  0  0
    6.8671   -4.0950    0.0000 O   0  0  0  0  0  0  0  0  0  0  0  0
    5.1350   -5.0950    0.0000 O   0  0  0  0  0  0  0  0  0  0  0  0
    3.4030   -4.0950    0.0000 O   0  0  0  0  0  0  0  0  0  0  0  0
    4.2690   -0.5950    0.0000 O   0  0  0  0  0  0  0  0  0  0  0  0
    2.5369   -2.5950    0.0000 O   0  0  0  0  0  0  0  0  0  0  0  0
    7.7331    2.4050    0.0000 O   0  0  0  0  0  0  0  0  0  0  0  0
    8.5991    0.9050    0.0000 N   0  0  0  0  0  0  0  0  0  0  0  0
    6.8671   -1.0950    0.0000 C   0  0  1  0  0  0  0  0  0  0  0  0
    7.7331   -0.5950    0.0000 C   0  0  1  0  0  0  0  0  0  0  0  0
    7.7331    0.4050    0.0000 C   0  0  2  0  0  0  0  0  0  0  0  0
    6.0010   -0.5950    0.0000 C   0  0  1  0  0  0  0  0  0  0  0  0
    6.0010   -2.5950    0.0000 C   0  0  2  0  0  0  0  0  0  0  0  0
    6.0010   -3.5950    0.0000 C   0  0  1  0  0  0  0  0  0  0  0  0
    6.8671    0.9050    0.0000 C   0  0  1  0  0  0  0  0  0  0  0  0
    5.1350   -4.0950    0.0000 C   0  0  2  0  0  0  0  0  0  0  0  0
    4.2690   -3.5950    0.0000 C   0  0  2  0  0  0  0  0  0  0  0  0
    4.2690   -2.5950    0.0000 C   0  0  1  0  0  0  0  0  0  0  0  0
    5.1350   -1.0950    0.0000 C   0  0  0  0  0  0  0  0  0  0  0  0
    3.4030   -2.0950    0.0000 C   0  0  0  0  0  0  0  0  0  0  0  0
    8.5991    1.9050    0.0000 C   0  0  0  0  0  0  0  0  0  0  0  0
    6.0010    2.4050    0.0000 C   0  0  0  0  0  0  0  0  0  0  0  0
    6.8671   -5.0950    0.0000 C   0  0  0  0  0  0  0  0  0  0  0  0
    9.4651    2.4050    0.0000 C   0  0  0  0  0  0  0  0  0  0  0  0
    6.0010    3.4050    0.0000 C   0  0  0  0  0  0  0  0  0  0  0  0
    6.8671    3.9050    0.0000 C   0  0  0  0  0  0  0  0  0  0  0  0
    5.1350    3.9050    0.0000 C   0  0  0  0  0  0  0  0  0  0  0  0
    6.8671    4.9050    0.0000 C   0  0  0  0  0  0  0  0  0  0  0  0
    5.1350    4.9050    0.0000 C   0  0  0  0  0  0  0  0  0  0  0  0
    6.0010    5.4050    0.0000 C   0  0  0  0  0  0  0  0  0  0  0  0
    7.4040   -1.4050    0.0000 H   0  0  0  0  0  0  0  0  0  0  0  0
    8.2700   -0.2850    0.0000 H   0  0  0  0  0  0  0  0  0  0  0  0
    7.7331    1.0250    0.0000 H   0  0  0  0  0  0  0  0  0  0  0  0
    5.4641   -0.2850    0.0000 H   0  0  0  0  0  0  0  0  0  0  0  0
    6.0010   -1.9750    0.0000 H   0  0  0  0  0  0  0  0  0  0  0  0
    6.0010   -4.2150    0.0000 H   0  0  0  0  0  0  0  0  0  0  0  0
    7.4040    1.2150    0.0000 H   0  0  0  0  0  0  0  0  0  0  0  0
    4.5981   -4.4050    0.0000 H   0  0  0  0  0  0  0  0  0  0  0  0
    4.2690   -4.2150    0.0000 H   0  0  0  0  0  0  0  0  0  0  0  0
    4.2690   -1.9750    0.0000 H   0  0  0  0  0  0  0  0  0  0  0  0
    4.7365   -1.5700    0.0000 H   0  0  0  0  0  0  0  0  0  0  0  0
    5.5335   -1.5700    0.0000 H   0  0  0  0  0  0  0  0  0  0  0  0
    9.1360    0.5950    0.0000 H   0  0  0  0  0  0  0  0  0  0  0  0
    3.8015   -1.6200    0.0000 H   0  0  0  0  0  0  0  0  0  0  0  0
    3.0044   -1.6200    0.0000 H   0  0  0  0  0  0  0  0  0  0  0  0
    8.5991   -1.7150    0.0000 H   0  0  0  0  0  0  0  0  0  0  0  0
    4.5981   -5.4050    0.0000 H   0  0  0  0  0  0  0  0  0  0  0  0
    3.4030   -4.7150    0.0000 H   0  0  0  0  0  0  0  0  0  0  0  0
    5.3905    2.5127    0.0000 H   0  0  0  0  0  0  0  0  0  0  0  0
    5.7890    1.8224    0.0000 H   0  0  0  0  0  0  0  0  0  0  0  0
    4.2690    0.0250    0.0000 H   0  0  0  0  0  0  0  0  0  0  0  0
    6.2471   -5.0950    0.0000 H   0  0  0  0  0  0  0  0  0  0  0  0
    6.8671   -5.7150    0.0000 H   0  0  0  0  0  0  0  0  0  0  0  0
    7.4871   -5.0950    0.0000 H   0  0  0  0  0  0  0  0  0  0  0  0
    2.0000   -2.2850    0.0000 H   0  0  0  0  0  0  0  0  0  0  0  0
    9.7751    1.8681    0.0000 H   0  0  0  0  0  0  0  0  0  0  0  0
   10.0021    2.7150    0.0000 H   0  0  0  0  0  0  0  0  0  0  0  0
    9.1551    2.9419    0.0000 H   0  0  0  0  0  0  0  0  0  0  0  0
    7.4040    3.5950    0.0000 H   0  0  0  0  0  0  0  0  0  0  0  0
    4.5981    3.5950    0.0000 H   0  0  0  0  0  0  0  0  0  0  0  0
    7.4040    5.2150    0.0000 H   0  0  0  0  0  0  0  0  0  0  0  0
    4.5981    5.2150    0.0000 H   0  0  0  0  0  0  0  0  0  0  0  0
    6.0010    6.0250    0.0000 H   0  0  0  0  0  0  0  0  0  0  0  0
 13  1  1  6  0  0  0
 17  1  1  1  0  0  0
  2 16  1  0  0  0  0
  2 19  1  0  0  0  0
  3 17  1  0  0  0  0
  3 22  1  0  0  0  0
 14  4  1  1  0  0  0
  4 50  1  0  0  0  0
 19  5  1  1  0  0  0
  5 26  1  0  0  0  0
 18  6  1  6  0  0  0
  6 27  1  0  0  0  0
 20  7  1  1  0  0  0
  7 51  1  0  0  0  0
 21  8  1  1  0  0  0
  8 52  1  0  0  0  0
  9 23  1  0  0  0  0
  9 55  1  0  0  0  0
 10 24  1  0  0  0  0
 10 59  1  0  0  0  0
 11 25  2  0  0  0  0
 15 12  1  6  0  0  0
 12 25  1  0  0  0  0
 12 47  1  0  0  0  0
 13 14  1  0  0  0  0
 13 16  1  0  0  0  0
 13 35  1  0  0  0  0
 14 15  1  0  0  0  0
 14 36  1  0  0  0  0
 15 19  1  0  0  0  0
 15 37  1  0  0  0  0
 16 23  1  1  0  0  0
 16 38  1  0  0  0  0
 17 18  1  0  0  0  0
 17 39  1  0  0  0  0
 18 20  1  0  0  0  0
 18 40  1  0  0  0  0
 19 41  1  0  0  0  0
 20 21  1  0  0  0  0
 20 42  1  0  0  0  0
 21 22  1  0  0  0  0
 21 43  1  0  0  0  0
 22 24  1  1  0  0  0
 22 44  1  0  0  0  0
 23 45  1  0  0  0  0
 23 46  1  0  0  0  0
 24 48  1  0  0  0  0
 24 49  1  0  0  0  0
 25 28  1  0  0  0  0
 26 29  1  0  0  0  0
 26 53  1  0  0  0  0
 26 54  1  0  0  0  0
 27 56  1  0  0  0  0
 27 57  1  0  0  0  0
 27 58  1  0  0  0  0
 28 60  1  0  0  0  0
 28 61  1  0  0  0  0
 28 62  1  0  0  0  0
 29 30  2  0  0  0  0
 29 31  1  0  0  0  0
 30 32  1  0  0  0  0
 30 63  1  0  0  0  0
 31 33  2  0  0  0  0
 31 64  1  0  0  0  0
 32 34  2  0  0  0  0
 32 65  1  0  0  0  0
 33 34  1  0  0  0  0
 33 66  1  0  0  0  0
 34 67  1  0  0  0  0
M  END
> <PUBCHEM_COMPOUND_CID>
15934341

> <PUBCHEM_COMPOUND_CANONICALIZED>
1

> <PUBCHEM_CACTVS_COMPLEXITY>
634

> <PUBCHEM_CACTVS_HBOND_ACCEPTOR>
11

> <PUBCHEM_CACTVS_HBOND_DONOR>
6

> <PUBCHEM_CACTVS_ROTATABLE_BOND>
9

> <PUBCHEM_CACTVS_SUBSKEYS>
AAADcfB6PAAAAAAAAAAAAAAAAAAAAAAAAAA0SIAAAAAAAAABAAAAHgAQCAAADDzxmAcyCILABgCIAiFSEAACAAAgAAAIiIAICIgbNiKAsRincAAn1gGfqAfw8C8OAAAAAAAAAAAAAAAAAAAAAAAAAAAAAA==

> <PUBCHEM_IUPAC_OPENEYE_NAME>
N-[(2R,3R,4R,5S,6R)-2-benzyloxy-5-[(2S,3R,4S,5R,6R)-4,5-dihydroxy-6-(hydroxymethyl)-3-methoxy-tetrahydropyran-2-yl]oxy-4-hydroxy-6-(hydroxymethyl)tetrahydropyran-3-yl]acetamide

> <PUBCHEM_IUPAC_CAS_NAME>
N-[(2R,3R,4R,5S,6R)-5-[[(2S,3R,4S,5R,6R)-4,5-dihydroxy-6-(hydroxymethyl)-3-methoxy-2-oxanyl]oxy]-4-hydroxy-6-(hydroxymethyl)-2-phenylmethoxy-3-oxanyl]acetamide

> <PUBCHEM_IUPAC_NAME_MARKUP>
<I>N</I>-[(2<I>R</I>,3<I>R</I>,4<I>R</I>,5<I>S</I>,6<I>R</I>)-5-[(2<I>S</I>,3<I>R</I>,4<I>S</I>,5<I>R</I>,6<I>R</I>)-4,5-dihydroxy-6-(hydroxymethyl)-3-methoxyoxan-2-yl]oxy-4-hydroxy-6-(hydroxymethyl)-2-phenylmethoxyoxan-3-yl]acetamide

> <PUBCHEM_IUPAC_NAME>
N-[(2R,3R,4R,5S,6R)-5-[(2S,3R,4S,5R,6R)-4,5-dihydroxy-6-(hydroxymethyl)-3-methoxyoxan-2-yl]oxy-4-hydroxy-6-(hydroxymethyl)-2-phenylmethoxyoxan-3-yl]acetamide

> <PUBCHEM_IUPAC_SYSTEMATIC_NAME>
N-[(2R,3R,4R,5S,6R)-6-(hydroxymethyl)-5-[(2S,3R,4S,5R,6R)-6-(hydroxymethyl)-3-methoxy-4,5-bis(oxidanyl)oxan-2-yl]oxy-4-oxidanyl-2-phenylmethoxy-oxan-3-yl]ethanamide

> <PUBCHEM_IUPAC_TRADITIONAL_NAME>
N-[(2R,3R,4R,5S,6R)-2-benzoxy-5-[(2S,3R,4S,5R,6R)-4,5-dihydroxy-3-methoxy-6-methylol-tetrahydropyran-2-yl]oxy-4-hydroxy-6-methylol-tetrahydropyran-3-yl]acetamide

> <PUBCHEM_IUPAC_INCHI>
InChI=1S/C22H33NO11/c1-11(26)23-15-17(28)19(34-22-20(30-2)18(29)16(27)13(8-24)32-22)14(9-25)33-21(15)31-10-12-6-4-3-5-7-12/h3-7,13-22,24-25,27-29H,8-10H2,1-2H3,(H,23,26)/t13-,14-,15-,16+,17-,18+,19-,20-,21-,22+/m1/s1

> <PUBCHEM_IUPAC_INCHIKEY>
KIJUTDPHWCGPCK-OEUZHLKXSA-N

> <PUBCHEM_XLOGP3_AA>
-2.2

> <PUBCHEM_EXACT_MASS>
487.20536087

> <PUBCHEM_MOLECULAR_FORMULA>
C22H33NO11

> <PUBCHEM_MOLECULAR_WEIGHT>
487.5

> <PUBCHEM_OPENEYE_CAN_SMILES>
CC(=O)NC1C(C(C(OC1OCC2=CC=CC=C2)CO)OC3C(C(C(C(O3)CO)O)O)OC)O

> <PUBCHEM_OPENEYE_ISO_SMILES>
CC(=O)N[C@@H]1[C@H]([C@@H]([C@H](O[C@H]1OCC2=CC=CC=C2)CO)O[C@H]3[C@@H]([C@H]([C@H]([C@H](O3)CO)O)O)OC)O

> <PUBCHEM_CACTVS_TPSA>
176

> <PUBCHEM_MONOISOTOPIC_WEIGHT>
487.20536087

> <PUBCHEM_TOTAL_CHARGE>
0

> <PUBCHEM_HEAVY_ATOM_COUNT>
34

> <PUBCHEM_ATOM_DEF_STEREO_COUNT>
10

> <PUBCHEM_ATOM_UDEF_STEREO_COUNT>
0

> <PUBCHEM_BOND_DEF_STEREO_COUNT>
0

> <PUBCHEM_BOND_UDEF_STEREO_COUNT>
0

> <PUBCHEM_ISOTOPIC_ATOM_COUNT>
0

> <PUBCHEM_COMPONENT_COUNT>
1

> <PUBCHEM_CACTVS_TAUTO_COUNT>
-1

> <PUBCHEM_COORDINATE_TYPE>
1
5
255

> <PUBCHEM_BONDANNOTATIONS>
13  1  6
17  1  5
15  12  6
16  23  5
22  24  5
29  30  8
29  31  8
30  32  8
31  33  8
32  34  8
33  34  8
14  4  5
19  5  5
18  6  6
20  7  5
21  8  5

$$$$
