 
  -OEChem-10192103502D

 32 31  0     0  0  0  0  0  0999 V2000
    3.4030   -0.3170    0.0000 P   0  0  0  0  0  0  0  0  0  0  0  0
    4.2690    0.1830    0.0000 O   0  0  0  0  0  0  0  0  0  0  0  0
   12.0632   -0.3170    0.0000 O   0  0  0  0  0  0  0  0  0  0  0  0
   11.1972    1.1830    0.0000 O   0  0  0  0  0  0  0  0  0  0  0  0
    2.5369   -0.8170    0.0000 O   0  0  0  0  0  0  0  0  0  0  0  0
    2.9030    0.5490    0.0000 O   0  0  0  0  0  0  0  0  0  0  0  0
    3.9030   -1.1830    0.0000 O   0  0  0  0  0  0  0  0  0  0  0  0
    7.7331    0.1830    0.0000 C   0  0  0  0  0  0  0  0  0  0  0  0
    6.8671   -0.3170    0.0000 C   0  0  0  0  0  0  0  0  0  0  0  0
    8.5991   -0.3170    0.0000 C   0  0  0  0  0  0  0  0  0  0  0  0
    6.0010    0.1830    0.0000 C   0  0  0  0  0  0  0  0  0  0  0  0
    9.4651    0.1830    0.0000 C   0  0  0  0  0  0  0  0  0  0  0  0
    5.1350   -0.3170    0.0000 C   0  0  0  0  0  0  0  0  0  0  0  0
   10.3312   -0.3170    0.0000 C   0  0  0  0  0  0  0  0  0  0  0  0
   11.1972    0.1830    0.0000 C   0  0  0  0  0  0  0  0  0  0  0  0
    8.1316    0.6580    0.0000 H   0  0  0  0  0  0  0  0  0  0  0  0
    7.3346    0.6580    0.0000 H   0  0  0  0  0  0  0  0  0  0  0  0
    6.4685   -0.7919    0.0000 H   0  0  0  0  0  0  0  0  0  0  0  0
    7.2656   -0.7919    0.0000 H   0  0  0  0  0  0  0  0  0  0  0  0
    8.2006   -0.7919    0.0000 H   0  0  0  0  0  0  0  0  0  0  0  0
    8.9976   -0.7919    0.0000 H   0  0  0  0  0  0  0  0  0  0  0  0
    6.3996    0.6580    0.0000 H   0  0  0  0  0  0  0  0  0  0  0  0
    5.6025    0.6580    0.0000 H   0  0  0  0  0  0  0  0  0  0  0  0
    9.8637    0.6580    0.0000 H   0  0  0  0  0  0  0  0  0  0  0  0
    9.0666    0.6580    0.0000 H   0  0  0  0  0  0  0  0  0  0  0  0
    4.7365   -0.7919    0.0000 H   0  0  0  0  0  0  0  0  0  0  0  0
    5.5335   -0.7919    0.0000 H   0  0  0  0  0  0  0  0  0  0  0  0
    9.9326   -0.7919    0.0000 H   0  0  0  0  0  0  0  0  0  0  0  0
   10.7297   -0.7919    0.0000 H   0  0  0  0  0  0  0  0  0  0  0  0
   12.6002   -0.0070    0.0000 H   0  0  0  0  0  0  0  0  0  0  0  0
    2.0000   -0.5070    0.0000 H   0  0  0  0  0  0  0  0  0  0  0  0
    3.2130    1.0860    0.0000 H   0  0  0  0  0  0  0  0  0  0  0  0
  1  2  1  0  0  0  0
  1  5  1  0  0  0  0
  1  6  1  0  0  0  0
  1  7  2  0  0  0  0
  2 13  1  0  0  0  0
  3 15  1  0  0  0  0
  3 30  1  0  0  0  0
  4 15  2  0  0  0  0
  5 31  1  0  0  0  0
  6 32  1  0  0  0  0
  8  9  1  0  0  0  0
  8 10  1  0  0  0  0
  8 16  1  0  0  0  0
  8 17  1  0  0  0  0
  9 11  1  0  0  0  0
  9 18  1  0  0  0  0
  9 19  1  0  0  0  0
 10 12  1  0  0  0  0
 10 20  1  0  0  0  0
 10 21  1  0  0  0  0
 11 13  1  0  0  0  0
 11 22  1  0  0  0  0
 11 23  1  0  0  0  0
 12 14  1  0  0  0  0
 12 24  1  0  0  0  0
 12 25  1  0  0  0  0
 13 26  1  0  0  0  0
 13 27  1  0  0  0  0
 14 15  1  0  0  0  0
 14 28  1  0  0  0  0
 14 29  1  0  0  0  0
M  END
> <PUBCHEM_COMPOUND_CID>
87683703

> <PUBCHEM_COMPOUND_CANONICALIZED>
1

> <PUBCHEM_CACTVS_COMPLEXITY>
223

> <PUBCHEM_CACTVS_HBOND_ACCEPTOR>
6

> <PUBCHEM_CACTVS_HBOND_DONOR>
3

> <PUBCHEM_CACTVS_ROTATABLE_BOND>
9

> <PUBCHEM_CACTVS_SUBSKEYS>
AAADceBwOAIAAAAAAAAAAAAAAAAAAAAAAAAAAAAAAAAAAAAAAAAAGgAACCAACACggAIACAAAAxAIQACQCIAAAAAAAAAAAAEAAAAAABIAAAAAQAAEAAAAAAGIyKCAAAAAAAAAAAAAAAAAAAAAAAAAAAAAAA==

> <PUBCHEM_IUPAC_OPENEYE_NAME>
8-phosphonooxyoctanoic acid

> <PUBCHEM_IUPAC_CAS_NAME>
8-phosphonooxyoctanoic acid

> <PUBCHEM_IUPAC_NAME_MARKUP>
8-phosphonooxyoctanoic acid

> <PUBCHEM_IUPAC_NAME>
8-phosphonooxyoctanoic acid

> <PUBCHEM_IUPAC_SYSTEMATIC_NAME>
8-phosphonooxyoctanoic acid

> <PUBCHEM_IUPAC_TRADITIONAL_NAME>
8-phosphonooxycaprylic acid

> <PUBCHEM_IUPAC_INCHI>
InChI=1S/C8H17O6P/c9-8(10)6-4-2-1-3-5-7-14-15(11,12)13/h1-7H2,(H,9,10)(H2,11,12,13)

> <PUBCHEM_IUPAC_INCHIKEY>
XDWMLQVGNOJHSD-UHFFFAOYSA-N

> <PUBCHEM_XLOGP3_AA>
0.1

> <PUBCHEM_EXACT_MASS>
240.07627526

> <PUBCHEM_MOLECULAR_FORMULA>
C8H17O6P

> <PUBCHEM_MOLECULAR_WEIGHT>
240.19

> <PUBCHEM_OPENEYE_CAN_SMILES>
C(CCCC(=O)O)CCCOP(=O)(O)O

> <PUBCHEM_OPENEYE_ISO_SMILES>
C(CCCC(=O)O)CCCOP(=O)(O)O

> <PUBCHEM_CACTVS_TPSA>
104

> <PUBCHEM_MONOISOTOPIC_WEIGHT>
240.07627526

> <PUBCHEM_TOTAL_CHARGE>
0

> <PUBCHEM_HEAVY_ATOM_COUNT>
15

> <PUBCHEM_ATOM_DEF_STEREO_COUNT>
0

> <PUBCHEM_ATOM_UDEF_STEREO_COUNT>
0

> <PUBCHEM_BOND_DEF_STEREO_COUNT>
0

> <PUBCHEM_BOND_UDEF_STEREO_COUNT>
0

> <PUBCHEM_ISOTOPIC_ATOM_COUNT>
0

> <PUBCHEM_COMPONENT_COUNT>
1

> <PUBCHEM_CACTVS_TAUTO_COUNT>
-1

> <PUBCHEM_COORDINATE_TYPE>
1
5
255

$$$$
