 
  -OEChem-10192103572D

 21 22  0     1  0  0  0  0  0999 V2000
    5.4490   -0.9871    0.0000 O   0  0  0  0  0  0  0  0  0  0  0  0
    5.7078   -0.0212    0.0000 O   0  0  0  0  0  0  0  0  0  0  0  0
    3.0723    2.3363    0.0000 O   0  0  0  0  0  0  0  0  0  0  0  0
    2.8639   -2.3433    0.0000 O   0  0  0  0  0  0  0  0  0  0  0  0
    2.0159   -2.8732    0.0000 O   0  4  0  0  0  0  0  0  0  0  0  0
    4.0501   -0.4783    0.0000 C   0  0  3  0  0  0  0  0  0  0  0  0
    3.5723    1.4703    0.0000 C   0  0  3  0  0  0  0  0  0  0  0  0
    4.3089    0.4877    0.0000 C   0  0  3  0  0  0  0  0  0  0  0  0
    2.8290   -1.3439    0.0000 C   0  0  3  0  0  0  0  0  0  0  0  0
    3.7912   -1.4442    0.0000 C   0  0  0  0  0  0  0  0  0  0  0  0
    2.2756    0.1765    0.0000 C   0  0  0  0  0  0  0  0  0  0  0  0
    2.0000   -0.7847    0.0000 C   0  0  0  0  0  0  0  0  0  0  0  0
    4.0897    1.8118    0.0000 H   0  0  0  0  0  0  0  0  0  0  0  0
    4.6782    0.9856    0.0000 H   0  0  0  0  0  0  0  0  0  0  0  0
    2.2868   -1.6445    0.0000 H   0  0  0  0  0  0  0  0  0  0  0  0
    3.1924   -1.2837    0.0000 H   0  0  0  0  0  0  0  0  0  0  0  0
    3.6308   -2.0431    0.0000 H   0  0  0  0  0  0  0  0  0  0  0  0
    4.3901   -1.6047    0.0000 H   0  0  0  0  0  0  0  0  0  0  0  0
    1.8660    0.6420    0.0000 H   0  0  0  0  0  0  0  0  0  0  0  0
    1.4174   -0.9968    0.0000 H   0  0  0  0  0  0  0  0  0  0  0  0
    3.3823    2.8732    0.0000 H   0  0  0  0  0  0  0  0  0  0  0  0
  1  2  1  0  0  0  0
  1  6  1  0  0  0  0
  2  8  1  0  0  0  0
  3  7  1  0  0  0  0
  3 21  1  0  0  0  0
  4  5  1  0  0  0  0
  4  9  1  0  0  0  0
  6  7  1  0  0  0  0
  6  9  1  0  0  0  0
  6 10  1  0  0  0  0
  7  8  1  0  0  0  0
  7 13  1  0  0  0  0
  8 11  1  0  0  0  0
  8 14  1  0  0  0  0
  9 12  1  0  0  0  0
  9 15  1  0  0  0  0
 10 16  1  0  0  0  0
 10 17  1  0  0  0  0
 10 18  1  0  0  0  0
 11 12  2  0  0  0  0
 11 19  1  0  0  0  0
 12 20  1  0  0  0  0
M  RAD  1   5   2
M  END
> <PUBCHEM_COMPOUND_CID>
101804262

> <PUBCHEM_COMPOUND_CANONICALIZED>
1

> <PUBCHEM_CACTVS_COMPLEXITY>
216

> <PUBCHEM_CACTVS_HBOND_ACCEPTOR>
4

> <PUBCHEM_CACTVS_HBOND_DONOR>
1

> <PUBCHEM_CACTVS_ROTATABLE_BOND>
0

> <PUBCHEM_CACTVS_SUBSKEYS>
AAADccBgOAAAAAAAAAAAAAAAAAAAASAAAAAgAAAABAAAAAAAAAAAGgAADAAADFSggAICAAAAAgCAACBCAAAAAAAgAAAICAAAAAgBFAIAAQAAUAAFwAAJAAPAAAAOAAAAAAAAAAAAAAAAAAAAAAAAAAAAAA==

> <PUBCHEM_IUPAC_INCHI>
InChI=1S/C7H9O5/c1-7-5(10-9)3-2-4(6(7)8)11-12-7/h2-6,8H,1H3

> <PUBCHEM_IUPAC_INCHIKEY>
SSVGKSSJIRUFSU-UHFFFAOYSA-N

> <PUBCHEM_XLOGP3_AA>
-0.8

> <PUBCHEM_EXACT_MASS>
173.04499838

> <PUBCHEM_MOLECULAR_FORMULA>
C7H9O5

> <PUBCHEM_MOLECULAR_WEIGHT>
173.14

> <PUBCHEM_OPENEYE_CAN_SMILES>
CC12C(C=CC(C1O)OO2)O[O]

> <PUBCHEM_OPENEYE_ISO_SMILES>
CC12C(C=CC(C1O)OO2)O[O]

> <PUBCHEM_CACTVS_TPSA>
48.9

> <PUBCHEM_MONOISOTOPIC_WEIGHT>
173.04499838

> <PUBCHEM_TOTAL_CHARGE>
0

> <PUBCHEM_HEAVY_ATOM_COUNT>
12

> <PUBCHEM_ATOM_DEF_STEREO_COUNT>
0

> <PUBCHEM_ATOM_UDEF_STEREO_COUNT>
4

> <PUBCHEM_BOND_DEF_STEREO_COUNT>
0

> <PUBCHEM_BOND_UDEF_STEREO_COUNT>
0

> <PUBCHEM_ISOTOPIC_ATOM_COUNT>
0

> <PUBCHEM_COMPONENT_COUNT>
1

> <PUBCHEM_CACTVS_TAUTO_COUNT>
-1

> <PUBCHEM_COORDINATE_TYPE>
1
5
255

> <PUBCHEM_BONDANNOTATIONS>
7  3  3
9  4  3
6  10  3
8  11  3

$$$$
