 
  -OEChem-10192103512D

 71 70  0     1  0  0  0  0  0999 V2000
    6.8671   -1.6900    0.0000 O   0  0  0  0  0  0  0  0  0  0  0  0
    5.1350   -0.6900    0.0000 O   0  0  0  0  0  0  0  0  0  0  0  0
    7.7331    0.8100    0.0000 O   0  0  0  0  0  0  0  0  0  0  0  0
    5.1350    1.3100    0.0000 O   0  0  0  0  0  0  0  0  0  0  0  0
    8.5991   -1.6900    0.0000 O   0  0  0  0  0  0  0  0  0  0  0  0
   10.3312   -0.6900    0.0000 O   0  0  0  0  0  0  0  0  0  0  0  0
    8.5991    1.3100    0.0000 O   0  0  0  0  0  0  0  0  0  0  0  0
    9.4651   -2.1900    0.0000 O   0  0  0  0  0  0  0  0  0  0  0  0
    5.1350   -3.6900    0.0000 O   0  0  0  0  0  0  0  0  0  0  0  0
    2.5369   -0.1900    0.0000 O   0  0  0  0  0  0  0  0  0  0  0  0
    4.2690    3.8100    0.0000 O   0  0  0  0  0  0  0  0  0  0  0  0
   12.9292   -0.1900    0.0000 O   0  0  0  0  0  0  0  0  0  0  0  0
    6.8671   -0.6900    0.0000 C   0  0  1  0  0  0  0  0  0  0  0  0
    7.7331   -0.1900    0.0000 C   0  0  1  0  0  0  0  0  0  0  0  0
    6.0010   -0.1900    0.0000 C   0  0  1  0  0  0  0  0  0  0  0  0
    8.5991   -0.6900    0.0000 C   0  0  1  0  0  0  0  0  0  0  0  0
    6.0010    0.8100    0.0000 C   0  0  0  0  0  0  0  0  0  0  0  0
    9.4651   -0.1900    0.0000 C   0  0  0  0  0  0  0  0  0  0  0  0
    6.0010   -2.1900    0.0000 C   0  0  3  0  0  0  0  0  0  0  0  0
    4.2690   -0.1900    0.0000 C   0  0  3  0  0  0  0  0  0  0  0  0
    5.1350    2.3100    0.0000 C   0  0  3  0  0  0  0  0  0  0  0  0
    6.0010   -3.1900    0.0000 C   0  0  0  0  0  0  0  0  0  0  0  0
    5.1350   -1.6900    0.0000 C   0  0  0  0  0  0  0  0  0  0  0  0
    3.4030   -0.6900    0.0000 C   0  0  0  0  0  0  0  0  0  0  0  0
    4.2690    0.8100    0.0000 C   0  0  0  0  0  0  0  0  0  0  0  0
   11.1972   -0.1900    0.0000 C   0  0  3  0  0  0  0  0  0  0  0  0
    4.2690    2.8100    0.0000 C   0  0  0  0  0  0  0  0  0  0  0  0
    6.0010    2.8100    0.0000 C   0  0  0  0  0  0  0  0  0  0  0  0
   12.0632   -0.6900    0.0000 C   0  0  0  0  0  0  0  0  0  0  0  0
   11.1972    0.8100    0.0000 C   0  0  0  0  0  0  0  0  0  0  0  0
    3.4030    4.3100    0.0000 C   0  0  0  0  0  0  0  0  0  0  0  0
    6.3301   -1.0000    0.0000 H   0  0  0  0  0  0  0  0  0  0  0  0
    8.2700    0.1200    0.0000 H   0  0  0  0  0  0  0  0  0  0  0  0
    5.4641    0.1200    0.0000 H   0  0  0  0  0  0  0  0  0  0  0  0
    8.0622   -1.0000    0.0000 H   0  0  0  0  0  0  0  0  0  0  0  0
    6.6116    0.7023    0.0000 H   0  0  0  0  0  0  0  0  0  0  0  0
    6.2131    1.3926    0.0000 H   0  0  0  0  0  0  0  0  0  0  0  0
    9.8637    0.2849    0.0000 H   0  0  0  0  0  0  0  0  0  0  0  0
    9.0666    0.2849    0.0000 H   0  0  0  0  0  0  0  0  0  0  0  0
    6.5380   -2.5000    0.0000 H   0  0  0  0  0  0  0  0  0  0  0  0
    4.2690   -0.8100    0.0000 H   0  0  0  0  0  0  0  0  0  0  0  0
    5.6720    2.0000    0.0000 H   0  0  0  0  0  0  0  0  0  0  0  0
    6.2131   -3.7726    0.0000 H   0  0  0  0  0  0  0  0  0  0  0  0
    6.6116   -3.0823    0.0000 H   0  0  0  0  0  0  0  0  0  0  0  0
    5.4450   -1.1531    0.0000 H   0  0  0  0  0  0  0  0  0  0  0  0
    4.5981   -1.3800    0.0000 H   0  0  0  0  0  0  0  0  0  0  0  0
    4.8250   -2.2269    0.0000 H   0  0  0  0  0  0  0  0  0  0  0  0
    3.0044   -1.1650    0.0000 H   0  0  0  0  0  0  0  0  0  0  0  0
    3.8015   -1.1650    0.0000 H   0  0  0  0  0  0  0  0  0  0  0  0
    4.8890    0.8100    0.0000 H   0  0  0  0  0  0  0  0  0  0  0  0
    4.2690    1.4300    0.0000 H   0  0  0  0  0  0  0  0  0  0  0  0
    3.6490    0.8100    0.0000 H   0  0  0  0  0  0  0  0  0  0  0  0
   10.6603    0.1200    0.0000 H   0  0  0  0  0  0  0  0  0  0  0  0
    3.6584    2.9177    0.0000 H   0  0  0  0  0  0  0  0  0  0  0  0
    4.0569    2.2274    0.0000 H   0  0  0  0  0  0  0  0  0  0  0  0
    6.3110    2.2731    0.0000 H   0  0  0  0  0  0  0  0  0  0  0  0
    6.5380    3.1200    0.0000 H   0  0  0  0  0  0  0  0  0  0  0  0
    5.6910    3.3469    0.0000 H   0  0  0  0  0  0  0  0  0  0  0  0
   11.6647   -1.1650    0.0000 H   0  0  0  0  0  0  0  0  0  0  0  0
   12.4617   -1.1650    0.0000 H   0  0  0  0  0  0  0  0  0  0  0  0
    8.5991    1.9300    0.0000 H   0  0  0  0  0  0  0  0  0  0  0  0
   11.8172    0.8100    0.0000 H   0  0  0  0  0  0  0  0  0  0  0  0
   11.1972    1.4300    0.0000 H   0  0  0  0  0  0  0  0  0  0  0  0
   10.5772    0.8100    0.0000 H   0  0  0  0  0  0  0  0  0  0  0  0
    9.4651   -2.8100    0.0000 H   0  0  0  0  0  0  0  0  0  0  0  0
    5.1350   -4.3100    0.0000 H   0  0  0  0  0  0  0  0  0  0  0  0
    2.0000   -0.5000    0.0000 H   0  0  0  0  0  0  0  0  0  0  0  0
   13.4662   -0.5000    0.0000 H   0  0  0  0  0  0  0  0  0  0  0  0
    3.7130    4.8469    0.0000 H   0  0  0  0  0  0  0  0  0  0  0  0
    2.8660    4.6200    0.0000 H   0  0  0  0  0  0  0  0  0  0  0  0
    3.0930    3.7731    0.0000 H   0  0  0  0  0  0  0  0  0  0  0  0
 13  1  1  6  0  0  0
  1 19  1  0  0  0  0
 15  2  1  6  0  0  0
  2 20  1  0  0  0  0
  3  7  1  0  0  0  0
 14  3  1  6  0  0  0
  4 17  1  0  0  0  0
  4 21  1  0  0  0  0
  5  8  1  0  0  0  0
 16  5  1  1  0  0  0
  6 18  1  0  0  0  0
  6 26  1  0  0  0  0
  7 61  1  0  0  0  0
  8 65  1  0  0  0  0
  9 22  1  0  0  0  0
  9 66  1  0  0  0  0
 10 24  1  0  0  0  0
 10 67  1  0  0  0  0
 11 27  1  0  0  0  0
 11 31  1  0  0  0  0
 12 29  1  0  0  0  0
 12 68  1  0  0  0  0
 13 14  1  0  0  0  0
 13 15  1  0  0  0  0
 13 32  1  0  0  0  0
 14 16  1  0  0  0  0
 14 33  1  0  0  0  0
 15 17  1  0  0  0  0
 15 34  1  0  0  0  0
 16 18  1  0  0  0  0
 16 35  1  0  0  0  0
 17 36  1  0  0  0  0
 17 37  1  0  0  0  0
 18 38  1  0  0  0  0
 18 39  1  0  0  0  0
 19 22  1  0  0  0  0
 19 23  1  0  0  0  0
 19 40  1  0  0  0  0
 20 24  1  0  0  0  0
 20 25  1  0  0  0  0
 20 41  1  0  0  0  0
 21 27  1  0  0  0  0
 21 28  1  0  0  0  0
 21 42  1  0  0  0  0
 22 43  1  0  0  0  0
 22 44  1  0  0  0  0
 23 45  1  0  0  0  0
 23 46  1  0  0  0  0
 23 47  1  0  0  0  0
 24 48  1  0  0  0  0
 24 49  1  0  0  0  0
 25 50  1  0  0  0  0
 25 51  1  0  0  0  0
 25 52  1  0  0  0  0
 26 29  1  0  0  0  0
 26 30  1  0  0  0  0
 26 53  1  0  0  0  0
 27 54  1  0  0  0  0
 27 55  1  0  0  0  0
 28 56  1  0  0  0  0
 28 57  1  0  0  0  0
 28 58  1  0  0  0  0
 29 59  1  0  0  0  0
 29 60  1  0  0  0  0
 30 62  1  0  0  0  0
 30 63  1  0  0  0  0
 30 64  1  0  0  0  0
 31 69  1  0  0  0  0
 31 70  1  0  0  0  0
 31 71  1  0  0  0  0
M  END
> <PUBCHEM_COMPOUND_CID>
118488808

> <PUBCHEM_COMPOUND_CANONICALIZED>
1

> <PUBCHEM_CACTVS_COMPLEXITY>
415

> <PUBCHEM_CACTVS_HBOND_ACCEPTOR>
12

> <PUBCHEM_CACTVS_HBOND_DONOR>
5

> <PUBCHEM_CACTVS_ROTATABLE_BOND>
20

> <PUBCHEM_CACTVS_SUBSKEYS>
AAADcfB4PAAAAAAAAAAAAAAAAAAAAAAAAAAAAAAAAAAAAAAAAAAAGgAADAAACBSggAICAAAABgAAAAAAAAAAAAAAAAAAAAAAAAABEAIAAAACQAAFAAADAAHAYAwAAAAAAAAAAAAAAAAAAAAAAAAAAAAAAA==

> <PUBCHEM_IUPAC_OPENEYE_NAME>
2-[(2R,3S,4R,5R)-2,3-dihydroperoxy-4,5-bis(2-hydroxy-1-methyl-ethoxy)-6-(2-methoxy-1-methyl-ethoxy)hexoxy]propan-1-ol

> <PUBCHEM_IUPAC_CAS_NAME>
2-[(2R,3S,4R,5R)-2,3-dihydroperoxy-4,5-bis(1-hydroxypropan-2-yloxy)-6-(1-methoxypropan-2-yloxy)hexoxy]-1-propanol

> <PUBCHEM_IUPAC_NAME_MARKUP>
2-[(2<I>R</I>,3<I>S</I>,4<I>R</I>,5<I>R</I>)-2,3-dihydroperoxy-4,5-bis(1-hydroxypropan-2-yloxy)-6-(1-methoxypropan-2-yloxy)hexoxy]propan-1-ol

> <PUBCHEM_IUPAC_NAME>
2-[(2R,3S,4R,5R)-2,3-dihydroperoxy-4,5-bis(1-hydroxypropan-2-yloxy)-6-(1-methoxypropan-2-yloxy)hexoxy]propan-1-ol

> <PUBCHEM_IUPAC_SYSTEMATIC_NAME>
2-[(2R,3S,4R,5R)-2,3-bis(dioxidanyl)-6-(1-methoxypropan-2-yloxy)-4,5-bis(1-oxidanylpropan-2-yloxy)hexoxy]propan-1-ol

> <PUBCHEM_IUPAC_TRADITIONAL_NAME>
2-[(2R,3S,4R,5R)-2,3-dihydroperoxy-4,5-bis(2-hydroxy-1-methyl-ethoxy)-6-(2-methoxy-1-methyl-ethoxy)hexoxy]propan-1-ol

> <PUBCHEM_IUPAC_INCHI>
InChI=1S/C19H40O12/c1-12(6-20)26-11-17(30-23)19(31-24)18(29-14(3)8-22)16(28-13(2)7-21)10-27-15(4)9-25-5/h12-24H,6-11H2,1-5H3/t12?,13?,14?,15?,16-,17-,18-,19-/m1/s1

> <PUBCHEM_IUPAC_INCHIKEY>
GCVDKKBOEQNQLO-AYTQWWJXSA-N

> <PUBCHEM_XLOGP3_AA>
-1.8

> <PUBCHEM_EXACT_MASS>
460.25197671

> <PUBCHEM_MOLECULAR_FORMULA>
C19H40O12

> <PUBCHEM_MOLECULAR_WEIGHT>
460.5

> <PUBCHEM_OPENEYE_CAN_SMILES>
CC(CO)OCC(C(C(C(COC(C)COC)OC(C)CO)OC(C)CO)OO)OO

> <PUBCHEM_OPENEYE_ISO_SMILES>
CC(CO)OC[C@H]([C@H]([C@@H]([C@@H](COC(C)COC)OC(C)CO)OC(C)CO)OO)OO

> <PUBCHEM_CACTVS_TPSA>
166

> <PUBCHEM_MONOISOTOPIC_WEIGHT>
460.25197671

> <PUBCHEM_TOTAL_CHARGE>
0

> <PUBCHEM_HEAVY_ATOM_COUNT>
31

> <PUBCHEM_ATOM_DEF_STEREO_COUNT>
4

> <PUBCHEM_ATOM_UDEF_STEREO_COUNT>
4

> <PUBCHEM_BOND_DEF_STEREO_COUNT>
0

> <PUBCHEM_BOND_UDEF_STEREO_COUNT>
0

> <PUBCHEM_ISOTOPIC_ATOM_COUNT>
0

> <PUBCHEM_COMPONENT_COUNT>
1

> <PUBCHEM_CACTVS_TAUTO_COUNT>
-1

> <PUBCHEM_COORDINATE_TYPE>
1
5
255

> <PUBCHEM_BONDANNOTATIONS>
13  1  6
19  23  3
15  2  6
20  25  3
21  28  3
26  30  3
14  3  6
16  5  5

$$$$
