 
  -OEChem-10192104212D

 62 66  0     1  0  0  0  0  0999 V2000
    7.3301   -0.7500    0.0000 O   0  0  0  0  0  0  0  0  0  0  0  0
    5.5981    1.2500    0.0000 O   0  0  0  0  0  0  0  0  0  0  0  0
    4.7320   -0.2500    0.0000 O   0  0  0  0  0  0  0  0  0  0  0  0
    8.6962   -3.1160    0.0000 O   0  0  0  0  0  0  0  0  0  0  0  0
    3.7320    2.7500    0.0000 O   0  0  0  0  0  0  0  0  0  0  0  0
    2.0000   -0.2500    0.0000 O   0  0  0  0  0  0  0  0  0  0  0  0
    7.3301    2.2500    0.0000 O   0  0  0  0  0  0  0  0  0  0  0  0
    4.7320   -2.2500    0.0000 O   0  0  0  0  0  0  0  0  0  0  0  0
    7.6962    4.6160    0.0000 O   0  0  0  0  0  0  0  0  0  0  0  0
    3.3660   -4.6160    0.0000 O   0  0  0  0  0  0  0  0  0  0  0  0
    6.4641   -0.2500    0.0000 C   0  0  0  0  0  0  0  0  0  0  0  0
    6.4641    0.7500    0.0000 C   0  0  3  0  0  0  0  0  0  0  0  0
    5.5981   -0.7500    0.0000 C   0  0  3  0  0  0  0  0  0  0  0  0
    8.1962   -2.2500    0.0000 C   0  0  3  0  0  0  0  0  0  0  0  0
    7.3301    1.2500    0.0000 C   0  0  0  0  0  0  0  0  0  0  0  0
    5.5981   -1.7500    0.0000 C   0  0  0  0  0  0  0  0  0  0  0  0
    4.7320    2.7500    0.0000 C   0  0  3  0  0  0  0  0  0  0  0  0
    3.0000   -0.2500    0.0000 C   0  0  3  0  0  0  0  0  0  0  0  0
    7.3301   -1.7500    0.0000 C   0  0  0  0  0  0  0  0  0  0  0  0
    5.5981    2.2500    0.0000 C   0  0  0  0  0  0  0  0  0  0  0  0
    3.8660   -0.7500    0.0000 C   0  0  0  0  0  0  0  0  0  0  0  0
    9.1962   -2.2500    0.0000 C   0  0  0  0  0  0  0  0  0  0  0  0
    4.2320    3.6160    0.0000 C   0  0  0  0  0  0  0  0  0  0  0  0
    2.5000    0.6160    0.0000 C   0  0  0  0  0  0  0  0  0  0  0  0
    8.1962    3.7500    0.0000 C   0  0  3  0  0  0  0  0  0  0  0  0
    3.8660   -3.7500    0.0000 C   0  0  3  0  0  0  0  0  0  0  0  0
    8.1962    2.7500    0.0000 C   0  0  0  0  0  0  0  0  0  0  0  0
    4.7320   -3.2500    0.0000 C   0  0  0  0  0  0  0  0  0  0  0  0
    8.6962    4.6160    0.0000 C   0  0  0  0  0  0  0  0  0  0  0  0
    2.8660   -3.7500    0.0000 C   0  0  0  0  0  0  0  0  0  0  0  0
    6.4641   -0.8700    0.0000 H   0  0  0  0  0  0  0  0  0  0  0  0
    6.4641    1.3700    0.0000 H   0  0  0  0  0  0  0  0  0  0  0  0
    5.5981   -0.1300    0.0000 H   0  0  0  0  0  0  0  0  0  0  0  0
    7.7578   -2.6884    0.0000 H   0  0  0  0  0  0  0  0  0  0  0  0
    7.5422    0.6674    0.0000 H   0  0  0  0  0  0  0  0  0  0  0  0
    7.9407    1.3577    0.0000 H   0  0  0  0  0  0  0  0  0  0  0  0
    5.8101   -2.3326    0.0000 H   0  0  0  0  0  0  0  0  0  0  0  0
    6.2087   -1.6423    0.0000 H   0  0  0  0  0  0  0  0  0  0  0  0
    4.5716    2.1511    0.0000 H   0  0  0  0  0  0  0  0  0  0  0  0
    2.8395   -0.8489    0.0000 H   0  0  0  0  0  0  0  0  0  0  0  0
    6.7196   -1.6423    0.0000 H   0  0  0  0  0  0  0  0  0  0  0  0
    7.1181   -2.3326    0.0000 H   0  0  0  0  0  0  0  0  0  0  0  0
    6.2087    2.1423    0.0000 H   0  0  0  0  0  0  0  0  0  0  0  0
    5.8101    2.8326    0.0000 H   0  0  0  0  0  0  0  0  0  0  0  0
    3.4675   -1.2250    0.0000 H   0  0  0  0  0  0  0  0  0  0  0  0
    4.2646   -1.2250    0.0000 H   0  0  0  0  0  0  0  0  0  0  0  0
    9.7788   -2.4620    0.0000 H   0  0  0  0  0  0  0  0  0  0  0  0
    9.3038   -1.6394    0.0000 H   0  0  0  0  0  0  0  0  0  0  0  0
    4.7070    4.0146    0.0000 H   0  0  0  0  0  0  0  0  0  0  0  0
    3.7571    4.0146    0.0000 H   0  0  0  0  0  0  0  0  0  0  0  0
    2.9750    1.0146    0.0000 H   0  0  0  0  0  0  0  0  0  0  0  0
    2.0250    1.0146    0.0000 H   0  0  0  0  0  0  0  0  0  0  0  0
    7.5973    3.5895    0.0000 H   0  0  0  0  0  0  0  0  0  0  0  0
    4.3044   -4.1884    0.0000 H   0  0  0  0  0  0  0  0  0  0  0  0
    8.4082    2.1674    0.0000 H   0  0  0  0  0  0  0  0  0  0  0  0
    8.8067    2.8577    0.0000 H   0  0  0  0  0  0  0  0  0  0  0  0
    4.9441   -3.8326    0.0000 H   0  0  0  0  0  0  0  0  0  0  0  0
    5.3426   -3.1423    0.0000 H   0  0  0  0  0  0  0  0  0  0  0  0
    9.2788    4.4040    0.0000 H   0  0  0  0  0  0  0  0  0  0  0  0
    8.8038    5.2266    0.0000 H   0  0  0  0  0  0  0  0  0  0  0  0
    2.7584   -3.1394    0.0000 H   0  0  0  0  0  0  0  0  0  0  0  0
    2.2834   -3.9620    0.0000 H   0  0  0  0  0  0  0  0  0  0  0  0
  1 11  1  0  0  0  0
  1 19  1  0  0  0  0
  2 12  1  0  0  0  0
  2 20  1  0  0  0  0
  3 13  1  0  0  0  0
  3 21  1  0  0  0  0
  4 14  1  0  0  0  0
  4 22  1  0  0  0  0
  5 17  1  0  0  0  0
  5 23  1  0  0  0  0
  6 18  1  0  0  0  0
  6 24  1  0  0  0  0
  7 15  1  0  0  0  0
  7 27  1  0  0  0  0
  8 16  1  0  0  0  0
  8 28  1  0  0  0  0
  9 25  1  0  0  0  0
  9 29  1  0  0  0  0
 10 26  1  0  0  0  0
 10 30  1  0  0  0  0
 11 12  1  0  0  0  0
 11 13  1  0  0  0  0
 11 31  1  0  0  0  0
 12 15  1  0  0  0  0
 12 32  1  0  0  0  0
 13 16  1  0  0  0  0
 13 33  1  0  0  0  0
 14 19  1  0  0  0  0
 14 22  1  0  0  0  0
 14 34  1  0  0  0  0
 15 35  1  0  0  0  0
 15 36  1  0  0  0  0
 16 37  1  0  0  0  0
 16 38  1  0  0  0  0
 17 20  1  0  0  0  0
 17 23  1  0  0  0  0
 17 39  1  0  0  0  0
 18 21  1  0  0  0  0
 18 24  1  0  0  0  0
 18 40  1  0  0  0  0
 19 41  1  0  0  0  0
 19 42  1  0  0  0  0
 20 43  1  0  0  0  0
 20 44  1  0  0  0  0
 21 45  1  0  0  0  0
 21 46  1  0  0  0  0
 22 47  1  0  0  0  0
 22 48  1  0  0  0  0
 23 49  1  0  0  0  0
 23 50  1  0  0  0  0
 24 51  1  0  0  0  0
 24 52  1  0  0  0  0
 25 27  1  0  0  0  0
 25 29  1  0  0  0  0
 25 53  1  0  0  0  0
 26 28  1  0  0  0  0
 26 30  1  0  0  0  0
 26 54  1  0  0  0  0
 27 55  1  0  0  0  0
 27 56  1  0  0  0  0
 28 57  1  0  0  0  0
 28 58  1  0  0  0  0
 29 59  1  0  0  0  0
 29 60  1  0  0  0  0
 30 61  1  0  0  0  0
 30 62  1  0  0  0  0
M  END
> <PUBCHEM_COMPOUND_CID>
57724736

> <PUBCHEM_COMPOUND_CANONICALIZED>
1

> <PUBCHEM_CACTVS_COMPLEXITY>
498

> <PUBCHEM_CACTVS_HBOND_ACCEPTOR>
10

> <PUBCHEM_CACTVS_HBOND_DONOR>
0

> <PUBCHEM_CACTVS_ROTATABLE_BOND>
19

> <PUBCHEM_CACTVS_SUBSKEYS>
AAADcfB4PAAAAAAAAAAAAAAAEiQAAAAAAAAAAAAAAAAAAAAAAAAAGgAAAAAACBSggAIAAAAABAAAAAAAAAAAAAAAAAAAAAAAAAABAAIAAAACAAAFAAACAADAIAgAAAAAAAAAAAAAAAAAAAAAAAAAAAAAAA==

> <PUBCHEM_IUPAC_OPENEYE_NAME>
2-[[1-[1,2-bis(oxiran-2-ylmethoxy)ethyl]-2,3-bis(oxiran-2-ylmethoxy)propoxy]methyl]oxirane

> <PUBCHEM_IUPAC_CAS_NAME>
2-[1,2,4,5-tetrakis(2-oxiranylmethoxy)pentan-3-yloxymethyl]oxirane

> <PUBCHEM_IUPAC_NAME_MARKUP>
2-[1,2,4,5-tetrakis(oxiran-2-ylmethoxy)pentan-3-yloxymethyl]oxirane

> <PUBCHEM_IUPAC_NAME>
2-[1,2,4,5-tetrakis(oxiran-2-ylmethoxy)pentan-3-yloxymethyl]oxirane

> <PUBCHEM_IUPAC_SYSTEMATIC_NAME>
2-[1,2,4,5-tetrakis(oxiran-2-ylmethoxy)pentan-3-yloxymethyl]oxirane

> <PUBCHEM_IUPAC_TRADITIONAL_NAME>
2-[[1-(1,2-diglycidoxyethyl)-2,3-diglycidoxy-propoxy]methyl]oxirane

> <PUBCHEM_IUPAC_INCHI>
InChI=1S/C20H32O10/c1(13-3-23-13)21-11-18(28-8-15-5-25-15)20(30-10-17-7-27-17)19(29-9-16-6-26-16)12-22-2-14-4-24-14/h13-20H,1-12H2

> <PUBCHEM_IUPAC_INCHIKEY>
DHAVPRYQFXLEQA-UHFFFAOYSA-N

> <PUBCHEM_XLOGP3_AA>
-1.9

> <PUBCHEM_EXACT_MASS>
432.19954721

> <PUBCHEM_MOLECULAR_FORMULA>
C20H32O10

> <PUBCHEM_MOLECULAR_WEIGHT>
432.5

> <PUBCHEM_OPENEYE_CAN_SMILES>
C1C(O1)COCC(C(C(COCC2CO2)OCC3CO3)OCC4CO4)OCC5CO5

> <PUBCHEM_OPENEYE_ISO_SMILES>
C1C(O1)COCC(C(C(COCC2CO2)OCC3CO3)OCC4CO4)OCC5CO5

> <PUBCHEM_CACTVS_TPSA>
109

> <PUBCHEM_MONOISOTOPIC_WEIGHT>
432.19954721

> <PUBCHEM_TOTAL_CHARGE>
0

> <PUBCHEM_HEAVY_ATOM_COUNT>
30

> <PUBCHEM_ATOM_DEF_STEREO_COUNT>
0

> <PUBCHEM_ATOM_UDEF_STEREO_COUNT>
7

> <PUBCHEM_BOND_DEF_STEREO_COUNT>
0

> <PUBCHEM_BOND_UDEF_STEREO_COUNT>
0

> <PUBCHEM_ISOTOPIC_ATOM_COUNT>
0

> <PUBCHEM_COMPONENT_COUNT>
1

> <PUBCHEM_CACTVS_TAUTO_COUNT>
-1

> <PUBCHEM_COORDINATE_TYPE>
1
5
255

> <PUBCHEM_BONDANNOTATIONS>
12  15  3
13  16  3
14  19  3
17  20  3
18  21  3
25  27  3
26  28  3

$$$$
