 
  -OEChem-10192103462D

 27 27  0     0  0  0  0  0  0999 V2000
    6.8801    0.8837    0.0000 O   0  0  0  0  0  0  0  0  0  0  0  0
    4.5141    1.5177    0.0000 O   0  0  0  0  0  0  0  0  0  0  0  0
    6.8801   -0.8483    0.0000 O   0  0  0  0  0  0  0  0  0  0  0  0
    6.2462    1.5177    0.0000 O   0  0  0  0  0  0  0  0  0  0  0  0
    4.3801   -0.9823    0.0000 C   0  0  0  0  0  0  0  0  0  0  0  0
    5.3801    0.0177    0.0000 C   0  0  0  0  0  0  0  0  0  0  0  0
    5.3801   -0.9823    0.0000 C   0  0  0  0  0  0  0  0  0  0  0  0
    4.3801    0.0177    0.0000 C   0  0  0  0  0  0  0  0  0  0  0  0
    3.6730   -1.6894    0.0000 C   0  0  0  0  0  0  0  0  0  0  0  0
    6.3801    0.0177    0.0000 C   0  0  0  0  0  0  0  0  0  0  0  0
    5.3801    1.0177    0.0000 C   0  0  0  0  0  0  0  0  0  0  0  0
    2.7071   -1.4306    0.0000 C   0  0  0  0  0  0  0  0  0  0  0  0
    2.0000   -2.1377    0.0000 C   0  0  0  0  0  0  0  0  0  0  0  0
    4.6174   -1.5551    0.0000 H   0  0  0  0  0  0  0  0  0  0  0  0
    5.3801   -1.6023    0.0000 H   0  0  0  0  0  0  0  0  0  0  0  0
    6.0001   -0.9823    0.0000 H   0  0  0  0  0  0  0  0  0  0  0  0
    4.3801    0.6377    0.0000 H   0  0  0  0  0  0  0  0  0  0  0  0
    3.7601    0.0177    0.0000 H   0  0  0  0  0  0  0  0  0  0  0  0
    3.4110   -2.2513    0.0000 H   0  0  0  0  0  0  0  0  0  0  0  0
    4.1809   -2.0450    0.0000 H   0  0  0  0  0  0  0  0  0  0  0  0
    2.9691   -0.8687    0.0000 H   0  0  0  0  0  0  0  0  0  0  0  0
    2.1992   -1.0750    0.0000 H   0  0  0  0  0  0  0  0  0  0  0  0
    1.5616   -1.6993    0.0000 H   0  0  0  0  0  0  0  0  0  0  0  0
    1.5616   -2.5761    0.0000 H   0  0  0  0  0  0  0  0  0  0  0  0
    2.4384   -2.5761    0.0000 H   0  0  0  0  0  0  0  0  0  0  0  0
    7.5001    0.8837    0.0000 H   0  0  0  0  0  0  0  0  0  0  0  0
    4.5141    2.1377    0.0000 H   0  0  0  0  0  0  0  0  0  0  0  0
  1 10  1  0  0  0  0
  1 26  1  0  0  0  0
  2 11  1  0  0  0  0
  2 27  1  0  0  0  0
  3 10  2  0  0  0  0
  4 11  2  0  0  0  0
  5  7  1  0  0  0  0
  5  8  1  0  0  0  0
  5  9  1  0  0  0  0
  5 14  1  0  0  0  0
  6  7  1  0  0  0  0
  6  8  1  0  0  0  0
  6 10  1  0  0  0  0
  6 11  1  0  0  0  0
  7 15  1  0  0  0  0
  7 16  1  0  0  0  0
  8 17  1  0  0  0  0
  8 18  1  0  0  0  0
  9 12  1  0  0  0  0
  9 19  1  0  0  0  0
  9 20  1  0  0  0  0
 12 13  1  0  0  0  0
 12 21  1  0  0  0  0
 12 22  1  0  0  0  0
 13 23  1  0  0  0  0
 13 24  1  0  0  0  0
 13 25  1  0  0  0  0
M  END
> <PUBCHEM_COMPOUND_CID>
23455369

> <PUBCHEM_COMPOUND_CANONICALIZED>
1

> <PUBCHEM_CACTVS_COMPLEXITY>
212

> <PUBCHEM_CACTVS_HBOND_ACCEPTOR>
4

> <PUBCHEM_CACTVS_HBOND_DONOR>
2

> <PUBCHEM_CACTVS_ROTATABLE_BOND>
4

> <PUBCHEM_CACTVS_SUBSKEYS>
AAADccBwOAAAAAAAAAAAAAAAAABgAAAAAAAAAAAAAAAAAAAAAAAAGgAACAAADwCAgAACCAAAAgAIAACQCAAAAAAAAAAAAAEAAAAAABYIAAAAQAAFIAAAAAGIyGCPAAAAAAAAAAAAAAAAAAAAAAAAAAAAAA==

> <PUBCHEM_IUPAC_OPENEYE_NAME>
3-propylcyclobutane-1,1-dicarboxylic acid

> <PUBCHEM_IUPAC_CAS_NAME>
3-propylcyclobutane-1,1-dicarboxylic acid

> <PUBCHEM_IUPAC_NAME_MARKUP>
3-propylcyclobutane-1,1-dicarboxylic acid

> <PUBCHEM_IUPAC_NAME>
3-propylcyclobutane-1,1-dicarboxylic acid

> <PUBCHEM_IUPAC_SYSTEMATIC_NAME>
3-propylcyclobutane-1,1-dicarboxylic acid

> <PUBCHEM_IUPAC_TRADITIONAL_NAME>
3-propylcyclobutane-1,1-dicarboxylic acid

> <PUBCHEM_IUPAC_INCHI>
InChI=1S/C9H14O4/c1-2-3-6-4-9(5-6,7(10)11)8(12)13/h6H,2-5H2,1H3,(H,10,11)(H,12,13)

> <PUBCHEM_IUPAC_INCHIKEY>
PWSKSHFYEQXIIB-UHFFFAOYSA-N

> <PUBCHEM_XLOGP3_AA>
1.7

> <PUBCHEM_EXACT_MASS>
186.08920892

> <PUBCHEM_MOLECULAR_FORMULA>
C9H14O4

> <PUBCHEM_MOLECULAR_WEIGHT>
186.20

> <PUBCHEM_OPENEYE_CAN_SMILES>
CCCC1CC(C1)(C(=O)O)C(=O)O

> <PUBCHEM_OPENEYE_ISO_SMILES>
CCCC1CC(C1)(C(=O)O)C(=O)O

> <PUBCHEM_CACTVS_TPSA>
74.6

> <PUBCHEM_MONOISOTOPIC_WEIGHT>
186.08920892

> <PUBCHEM_TOTAL_CHARGE>
0

> <PUBCHEM_HEAVY_ATOM_COUNT>
13

> <PUBCHEM_ATOM_DEF_STEREO_COUNT>
0

> <PUBCHEM_ATOM_UDEF_STEREO_COUNT>
0

> <PUBCHEM_BOND_DEF_STEREO_COUNT>
0

> <PUBCHEM_BOND_UDEF_STEREO_COUNT>
0

> <PUBCHEM_ISOTOPIC_ATOM_COUNT>
0

> <PUBCHEM_COMPONENT_COUNT>
1

> <PUBCHEM_CACTVS_TAUTO_COUNT>
-1

> <PUBCHEM_COORDINATE_TYPE>
1
5
255

$$$$
