 
  -OEChem-10192104062D

 38 38  0     1  0  0  0  0  0999 V2000
    6.8671   -0.5000    0.0000 O   0  0  0  0  0  0  0  0  0  0  0  0
    5.1350   -2.5000    0.0000 O   0  0  0  0  0  0  0  0  0  0  0  0
    5.1350    0.5000    0.0000 O   0  0  0  0  0  0  0  0  0  0  0  0
    6.8671   -3.5000    0.0000 O   0  0  0  0  0  0  0  0  0  0  0  0
    8.5991   -2.5000    0.0000 O   0  0  0  0  0  0  0  0  0  0  0  0
    8.5991   -0.5000    0.0000 O   0  0  0  0  0  0  0  0  0  0  0  0
    5.1350    2.5000    0.0000 O   0  0  0  0  0  0  0  0  0  0  0  0
    3.4030    3.5000    0.0000 O   0  0  0  0  0  0  0  0  0  0  0  0
    2.5369    1.0000    0.0000 O   0  0  0  0  0  0  0  0  0  0  0  0
    3.4030   -0.5000    0.0000 O   0  0  0  0  0  0  0  0  0  0  0  0
    6.0010   -2.0000    0.0000 C   0  0  2  0  0  0  0  0  0  0  0  0
    6.0010   -1.0000    0.0000 C   0  0  1  0  0  0  0  0  0  0  0  0
    6.8671   -2.5000    0.0000 C   0  0  1  0  0  0  0  0  0  0  0  0
    7.7331   -2.0000    0.0000 C   0  0  2  0  0  0  0  0  0  0  0  0
    7.7331   -1.0000    0.0000 C   0  0  3  0  0  0  0  0  0  0  0  0
    5.1350   -0.5000    0.0000 C   0  0  0  0  0  0  0  0  0  0  0  0
    4.2690    1.0000    0.0000 C   0  0  3  0  0  0  0  0  0  0  0  0
    4.2690    2.0000    0.0000 C   0  0  3  0  0  0  0  0  0  0  0  0
    3.4030    2.5000    0.0000 C   0  0  0  0  0  0  0  0  0  0  0  0
    3.4030    0.5000    0.0000 C   0  0  0  0  0  0  0  0  0  0  0  0
    5.4641   -1.6900    0.0000 H   0  0  0  0  0  0  0  0  0  0  0  0
    6.0010   -0.3800    0.0000 H   0  0  0  0  0  0  0  0  0  0  0  0
    6.3301   -2.8100    0.0000 H   0  0  0  0  0  0  0  0  0  0  0  0
    7.7331   -2.6200    0.0000 H   0  0  0  0  0  0  0  0  0  0  0  0
    8.2700   -1.3100    0.0000 H   0  0  0  0  0  0  0  0  0  0  0  0
    4.5244   -0.3923    0.0000 H   0  0  0  0  0  0  0  0  0  0  0  0
    4.9230   -1.0826    0.0000 H   0  0  0  0  0  0  0  0  0  0  0  0
    4.5981   -2.1900    0.0000 H   0  0  0  0  0  0  0  0  0  0  0  0
    4.2690    0.3800    0.0000 H   0  0  0  0  0  0  0  0  0  0  0  0
    7.4040   -3.8100    0.0000 H   0  0  0  0  0  0  0  0  0  0  0  0
    9.1360   -2.1900    0.0000 H   0  0  0  0  0  0  0  0  0  0  0  0
    4.2690    2.6200    0.0000 H   0  0  0  0  0  0  0  0  0  0  0  0
    8.5991    0.1200    0.0000 H   0  0  0  0  0  0  0  0  0  0  0  0
    2.7924    2.6077    0.0000 H   0  0  0  0  0  0  0  0  0  0  0  0
    3.1909    1.9174    0.0000 H   0  0  0  0  0  0  0  0  0  0  0  0
    5.1350    3.1200    0.0000 H   0  0  0  0  0  0  0  0  0  0  0  0
    2.8660    3.8100    0.0000 H   0  0  0  0  0  0  0  0  0  0  0  0
    2.0000    0.6900    0.0000 H   0  0  0  0  0  0  0  0  0  0  0  0
  1 12  1  0  0  0  0
  1 15  1  0  0  0  0
 11  2  1  6  0  0  0
  2 28  1  0  0  0  0
  3 16  1  0  0  0  0
  3 17  1  0  0  0  0
 13  4  1  1  0  0  0
  4 30  1  0  0  0  0
 14  5  1  6  0  0  0
  5 31  1  0  0  0  0
  6 15  1  0  0  0  0
  6 33  1  0  0  0  0
  7 18  1  0  0  0  0
  7 36  1  0  0  0  0
  8 19  1  0  0  0  0
  8 37  1  0  0  0  0
  9 20  1  0  0  0  0
  9 38  1  0  0  0  0
 10 20  2  0  0  0  0
 11 12  1  0  0  0  0
 11 13  1  0  0  0  0
 11 21  1  0  0  0  0
 12 16  1  1  0  0  0
 12 22  1  0  0  0  0
 13 14  1  0  0  0  0
 13 23  1  0  0  0  0
 14 15  1  0  0  0  0
 14 24  1  0  0  0  0
 15 25  1  0  0  0  0
 16 26  1  0  0  0  0
 16 27  1  0  0  0  0
 17 18  1  0  0  0  0
 17 20  1  0  0  0  0
 17 29  1  0  0  0  0
 18 19  1  0  0  0  0
 18 32  1  0  0  0  0
 19 34  1  0  0  0  0
 19 35  1  0  0  0  0
M  END
> <PUBCHEM_COMPOUND_CID>
129711689

> <PUBCHEM_COMPOUND_CANONICALIZED>
1

> <PUBCHEM_CACTVS_COMPLEXITY>
323

> <PUBCHEM_CACTVS_HBOND_ACCEPTOR>
10

> <PUBCHEM_CACTVS_HBOND_DONOR>
7

> <PUBCHEM_CACTVS_ROTATABLE_BOND>
6

> <PUBCHEM_CACTVS_SUBSKEYS>
AAADceBwPAAAAAAAAAAAAAAAAAAAAAAAAAAkAAAAAAAAAAAAAAAAGgAACAAACBSwgAMACAAABgAIAACQCAIAAAAAAAAAAAFAAAAREBYAAAQCQAAFIAAHAAHCYAwAAAAAAAAAAAAAAAAAAAAAAAAAAAAAAA==

> <PUBCHEM_IUPAC_OPENEYE_NAME>
3,4-dihydroxy-2-[[(2R,3S,4S,5R)-3,4,5,6-tetrahydroxytetrahydropyran-2-yl]methoxy]butanoic acid

> <PUBCHEM_IUPAC_CAS_NAME>
3,4-dihydroxy-2-[[(2R,3S,4S,5R)-3,4,5,6-tetrahydroxy-2-oxanyl]methoxy]butanoic acid

> <PUBCHEM_IUPAC_NAME_MARKUP>
3,4-dihydroxy-2-[[(2<I>R</I>,3<I>S</I>,4<I>S</I>,5<I>R</I>)-3,4,5,6-tetrahydroxyoxan-2-yl]methoxy]butanoic acid

> <PUBCHEM_IUPAC_NAME>
3,4-dihydroxy-2-[[(2R,3S,4S,5R)-3,4,5,6-tetrahydroxyoxan-2-yl]methoxy]butanoic acid

> <PUBCHEM_IUPAC_SYSTEMATIC_NAME>
3,4-bis(oxidanyl)-2-[[(2R,3S,4S,5R)-3,4,5,6-tetrakis(oxidanyl)oxan-2-yl]methoxy]butanoic acid

> <PUBCHEM_IUPAC_TRADITIONAL_NAME>
3,4-dihydroxy-2-[[(2R,3S,4S,5R)-3,4,5,6-tetrahydroxytetrahydropyran-2-yl]methoxy]butyric acid

> <PUBCHEM_IUPAC_INCHI>
InChI=1S/C10H18O10/c11-1-3(12)8(9(16)17)19-2-4-5(13)6(14)7(15)10(18)20-4/h3-8,10-15,18H,1-2H2,(H,16,17)/t3?,4-,5-,6+,7-,8?,10?/m1/s1

> <PUBCHEM_IUPAC_INCHIKEY>
XBXHPNBSFKHJNP-CYLAOGNTSA-N

> <PUBCHEM_XLOGP3_AA>
-4.3

> <PUBCHEM_EXACT_MASS>
298.08999677

> <PUBCHEM_MOLECULAR_FORMULA>
C10H18O10

> <PUBCHEM_MOLECULAR_WEIGHT>
298.24

> <PUBCHEM_OPENEYE_CAN_SMILES>
C(C1C(C(C(C(O1)O)O)O)O)OC(C(CO)O)C(=O)O

> <PUBCHEM_OPENEYE_ISO_SMILES>
C([C@@H]1[C@H]([C@@H]([C@H](C(O1)O)O)O)O)OC(C(CO)O)C(=O)O

> <PUBCHEM_CACTVS_TPSA>
177

> <PUBCHEM_MONOISOTOPIC_WEIGHT>
298.08999677

> <PUBCHEM_TOTAL_CHARGE>
0

> <PUBCHEM_HEAVY_ATOM_COUNT>
20

> <PUBCHEM_ATOM_DEF_STEREO_COUNT>
4

> <PUBCHEM_ATOM_UDEF_STEREO_COUNT>
3

> <PUBCHEM_BOND_DEF_STEREO_COUNT>
0

> <PUBCHEM_BOND_UDEF_STEREO_COUNT>
0

> <PUBCHEM_ISOTOPIC_ATOM_COUNT>
0

> <PUBCHEM_COMPONENT_COUNT>
1

> <PUBCHEM_CACTVS_TAUTO_COUNT>
-1

> <PUBCHEM_COORDINATE_TYPE>
1
5
255

> <PUBCHEM_BONDANNOTATIONS>
12  16  5
17  20  3
11  2  6
13  4  5
14  5  6
15  6  3
18  7  3

$$$$
