 
  -OEChem-10192104182D

 66 69  0     1  0  0  0  0  0999 V2000
   14.1486   -0.2961    0.0000 O   0  0  0  0  0  0  0  0  0  0  0  0
   10.6603    0.5950    0.0000 O   0  0  0  0  0  0  0  0  0  0  0  0
   11.5263   -0.9050    0.0000 O   0  0  0  0  0  0  0  0  0  0  0  0
    9.7942   -0.9050    0.0000 O   0  0  0  0  0  0  0  0  0  0  0  0
   11.5263   -2.9050    0.0000 O   0  0  0  0  0  0  0  0  0  0  0  0
   10.6603    3.5950    0.0000 O   0  0  0  0  0  0  0  0  0  0  0  0
    9.7942   -3.9050    0.0000 O   0  0  0  0  0  0  0  0  0  0  0  0
    8.0622   -2.9050    0.0000 O   0  0  0  0  0  0  0  0  0  0  0  0
   12.3923    3.5950    0.0000 O   0  0  0  0  0  0  0  0  0  0  0  0
    7.1962   -1.4050    0.0000 O   0  0  0  0  0  0  0  0  0  0  0  0
    6.3301    0.0950    0.0000 O   0  0  0  0  0  0  0  0  0  0  0  0
   12.3923    0.5950    0.0000 C   0  0  2  0  0  0  0  0  0  0  0  0
   13.3385    0.2903    0.0000 C   0  0  2  0  0  0  0  0  0  0  0  0
   12.3923    1.5950    0.0000 C   0  0  2  0  0  0  0  0  0  0  0  0
   13.9221    1.0950    0.0000 C   0  0  0  0  0  0  0  0  0  0  0  0
   13.3385    1.8997    0.0000 C   0  0  0  0  0  0  0  0  0  0  0  0
   11.5263    0.0950    0.0000 C   0  0  1  0  0  0  0  0  0  0  0  0
   11.5263    2.0950    0.0000 C   0  0  0  0  0  0  0  0  0  0  0  0
   13.0312   -0.6613    0.0000 C   0  0  0  0  0  0  0  0  0  0  0  0
   10.6603    1.5950    0.0000 C   0  0  0  0  0  0  0  0  0  0  0  0
   10.6603   -1.4050    0.0000 C   0  0  2  0  0  0  0  0  0  0  0  0
   10.6603   -2.4050    0.0000 C   0  0  1  0  0  0  0  0  0  0  0  0
   11.5263    3.0950    0.0000 C   0  0  0  0  0  0  0  0  0  0  0  0
    9.7942   -2.9050    0.0000 C   0  0  2  0  0  0  0  0  0  0  0  0
    8.9282   -2.4050    0.0000 C   0  0  1  0  0  0  0  0  0  0  0  0
    8.9282   -1.4050    0.0000 C   0  0  1  0  0  0  0  0  0  0  0  0
    8.0622   -0.9050    0.0000 C   0  0  0  0  0  0  0  0  0  0  0  0
    6.3301   -0.9050    0.0000 C   0  0  0  0  0  0  0  0  0  0  0  0
    5.4641   -1.4050    0.0000 C   0  0  0  0  0  0  0  0  0  0  0  0
    4.5981   -0.9050    0.0000 C   0  0  0  0  0  0  0  0  0  0  0  0
    3.7320   -1.4050    0.0000 C   0  0  0  0  0  0  0  0  0  0  0  0
    3.7320   -2.4050    0.0000 C   0  0  0  0  0  0  0  0  0  0  0  0
    2.8660   -0.9050    0.0000 C   0  0  0  0  0  0  0  0  0  0  0  0
    2.8660   -2.9050    0.0000 C   0  0  0  0  0  0  0  0  0  0  0  0
    2.0000   -1.4050    0.0000 C   0  0  0  0  0  0  0  0  0  0  0  0
    2.0000   -2.4050    0.0000 C   0  0  0  0  0  0  0  0  0  0  0  0
   12.4823   -0.2502    0.0000 H   0  0  0  0  0  0  0  0  0  0  0  0
   12.4823    2.4402    0.0000 H   0  0  0  0  0  0  0  0  0  0  0  0
   14.3830    0.6803    0.0000 H   0  0  0  0  0  0  0  0  0  0  0  0
   14.3830    1.5097    0.0000 H   0  0  0  0  0  0  0  0  0  0  0  0
   13.8759    2.2090    0.0000 H   0  0  0  0  0  0  0  0  0  0  0  0
   13.0875    2.4666    0.0000 H   0  0  0  0  0  0  0  0  0  0  0  0
   10.9893   -0.2150    0.0000 H   0  0  0  0  0  0  0  0  0  0  0  0
   12.4412   -0.4708    0.0000 H   0  0  0  0  0  0  0  0  0  0  0  0
   12.8406   -1.2513    0.0000 H   0  0  0  0  0  0  0  0  0  0  0  0
   13.6211   -0.8519    0.0000 H   0  0  0  0  0  0  0  0  0  0  0  0
   14.7145   -0.0430    0.0000 H   0  0  0  0  0  0  0  0  0  0  0  0
   10.1233    1.9050    0.0000 H   0  0  0  0  0  0  0  0  0  0  0  0
   11.1972   -1.7150    0.0000 H   0  0  0  0  0  0  0  0  0  0  0  0
   10.6603   -3.0250    0.0000 H   0  0  0  0  0  0  0  0  0  0  0  0
   10.3312   -3.2150    0.0000 H   0  0  0  0  0  0  0  0  0  0  0  0
    8.9282   -3.0250    0.0000 H   0  0  0  0  0  0  0  0  0  0  0  0
    8.9282   -0.7850    0.0000 H   0  0  0  0  0  0  0  0  0  0  0  0
    8.4607   -0.4301    0.0000 H   0  0  0  0  0  0  0  0  0  0  0  0
    7.6636   -0.4301    0.0000 H   0  0  0  0  0  0  0  0  0  0  0  0
   11.5263   -3.5250    0.0000 H   0  0  0  0  0  0  0  0  0  0  0  0
   10.6603    4.2150    0.0000 H   0  0  0  0  0  0  0  0  0  0  0  0
    9.2573   -4.2150    0.0000 H   0  0  0  0  0  0  0  0  0  0  0  0
    8.0622   -3.5250    0.0000 H   0  0  0  0  0  0  0  0  0  0  0  0
    5.4641   -2.0250    0.0000 H   0  0  0  0  0  0  0  0  0  0  0  0
    4.5981   -0.2850    0.0000 H   0  0  0  0  0  0  0  0  0  0  0  0
    4.2690   -2.7150    0.0000 H   0  0  0  0  0  0  0  0  0  0  0  0
    2.8660   -0.2850    0.0000 H   0  0  0  0  0  0  0  0  0  0  0  0
    2.8660   -3.5250    0.0000 H   0  0  0  0  0  0  0  0  0  0  0  0
    1.4631   -1.0950    0.0000 H   0  0  0  0  0  0  0  0  0  0  0  0
    1.4631   -2.7150    0.0000 H   0  0  0  0  0  0  0  0  0  0  0  0
 13  1  1  6  0  0  0
  1 47  1  0  0  0  0
  2 17  1  0  0  0  0
  2 20  1  0  0  0  0
 17  3  1  6  0  0  0
 21  3  1  1  0  0  0
  4 21  1  0  0  0  0
  4 26  1  0  0  0  0
 22  5  1  6  0  0  0
  5 56  1  0  0  0  0
  6 23  1  0  0  0  0
  6 57  1  0  0  0  0
 24  7  1  1  0  0  0
  7 58  1  0  0  0  0
 25  8  1  6  0  0  0
  8 59  1  0  0  0  0
  9 23  2  0  0  0  0
 10 27  1  0  0  0  0
 10 28  1  0  0  0  0
 11 28  2  0  0  0  0
 12 13  1  0  0  0  0
 12 14  1  0  0  0  0
 12 17  1  0  0  0  0
 12 37  1  6  0  0  0
 13 15  1  0  0  0  0
 13 19  1  0  0  0  0
 14 16  1  0  0  0  0
 14 18  1  0  0  0  0
 14 38  1  6  0  0  0
 15 16  1  0  0  0  0
 15 39  1  0  0  0  0
 15 40  1  0  0  0  0
 16 41  1  0  0  0  0
 16 42  1  0  0  0  0
 17 43  1  0  0  0  0
 18 20  2  0  0  0  0
 18 23  1  0  0  0  0
 19 44  1  0  0  0  0
 19 45  1  0  0  0  0
 19 46  1  0  0  0  0
 20 48  1  0  0  0  0
 21 22  1  0  0  0  0
 21 49  1  0  0  0  0
 22 24  1  0  0  0  0
 22 50  1  0  0  0  0
 24 25  1  0  0  0  0
 24 51  1  0  0  0  0
 25 26  1  0  0  0  0
 25 52  1  0  0  0  0
 26 27  1  1  0  0  0
 26 53  1  0  0  0  0
 27 54  1  0  0  0  0
 27 55  1  0  0  0  0
 28 29  1  0  0  0  0
 29 30  2  0  0  0  0
 29 60  1  0  0  0  0
 30 31  1  0  0  0  0
 30 61  1  0  0  0  0
 31 32  2  0  0  0  0
 31 33  1  0  0  0  0
 32 34  1  0  0  0  0
 32 62  1  0  0  0  0
 33 35  2  0  0  0  0
 33 63  1  0  0  0  0
 34 36  2  0  0  0  0
 34 64  1  0  0  0  0
 35 36  1  0  0  0  0
 35 65  1  0  0  0  0
 36 66  1  0  0  0  0
M  END
> <PUBCHEM_COMPOUND_CID>
54581150

> <PUBCHEM_COMPOUND_CANONICALIZED>
1

> <PUBCHEM_CACTVS_COMPLEXITY>
866

> <PUBCHEM_CACTVS_HBOND_ACCEPTOR>
11

> <PUBCHEM_CACTVS_HBOND_DONOR>
5

> <PUBCHEM_CACTVS_ROTATABLE_BOND>
8

> <PUBCHEM_CACTVS_SUBSKEYS>
AAADceB4PAAAAAAAAAAAAAAAAAAAAYAAAAA0QIAAAAAAAEABAAAAGgAACAAADVSwmAMyCIAABgCIAiDSCAACCAAgIAAIiAEAAMgZNDKAMRCicAAlgAAPuYfI7PzOgAAAAAAAAAAAAAAAAAAAAYAADAAAAA==

> <PUBCHEM_IUPAC_OPENEYE_NAME>
(1S,4aS,7S,7aS)-7-hydroxy-7-methyl-1-[(2S,3R,4S,5S,6R)-3,4,5-trihydroxy-6-[[(E)-3-phenylprop-2-enoyl]oxymethyl]tetrahydropyran-2-yl]oxy-4a,5,6,7a-tetrahydro-1H-cyclopenta[c]pyran-4-carboxylic acid

> <PUBCHEM_IUPAC_CAS_NAME>
(1S,4aS,7S,7aS)-7-hydroxy-7-methyl-1-[[(2S,3R,4S,5S,6R)-3,4,5-trihydroxy-6-[[(E)-1-oxo-3-phenylprop-2-enoxy]methyl]-2-oxanyl]oxy]-4a,5,6,7a-tetrahydro-1H-cyclopenta[c]pyran-4-carboxylic acid

> <PUBCHEM_IUPAC_NAME_MARKUP>
(1<I>S</I>,4<I>a</I><I>S</I>,7<I>S</I>,7<I>a</I><I>S</I>)-7-hydroxy-7-methyl-1-[(2<I>S</I>,3<I>R</I>,4<I>S</I>,5<I>S</I>,6<I>R</I>)-3,4,5-trihydroxy-6-[[(<I>E</I>)-3-phenylprop-2-enoyl]oxymethyl]oxan-2-yl]oxy-4<I>a</I>,5,6,7<I>a</I>-tetrahydro-1<I>H</I>-cyclopenta[c]pyran-4-carboxylic acid

> <PUBCHEM_IUPAC_NAME>
(1S,4aS,7S,7aS)-7-hydroxy-7-methyl-1-[(2S,3R,4S,5S,6R)-3,4,5-trihydroxy-6-[[(E)-3-phenylprop-2-enoyl]oxymethyl]oxan-2-yl]oxy-4a,5,6,7a-tetrahydro-1H-cyclopenta[c]pyran-4-carboxylic acid

> <PUBCHEM_IUPAC_SYSTEMATIC_NAME>
(1S,4aS,7S,7aS)-7-methyl-7-oxidanyl-1-[(2S,3R,4S,5S,6R)-3,4,5-tris(oxidanyl)-6-[[(E)-3-phenylprop-2-enoyl]oxymethyl]oxan-2-yl]oxy-4a,5,6,7a-tetrahydro-1H-cyclopenta[c]pyran-4-carboxylic acid

> <PUBCHEM_IUPAC_TRADITIONAL_NAME>
(1S,4aS,7S,7aS)-7-hydroxy-7-methyl-1-[(2S,3R,4S,5S,6R)-3,4,5-trihydroxy-6-[[(E)-3-phenylacryloyl]oxymethyl]tetrahydropyran-2-yl]oxy-4a,5,6,7a-tetrahydro-1H-cyclopenta[c]pyran-4-carboxylic acid

> <PUBCHEM_IUPAC_INCHI>
InChI=1S/C25H30O11/c1-25(32)10-9-14-15(22(30)31)11-34-23(18(14)25)36-24-21(29)20(28)19(27)16(35-24)12-33-17(26)8-7-13-5-3-2-4-6-13/h2-8,11,14,16,18-21,23-24,27-29,32H,9-10,12H2,1H3,(H,30,31)/b8-7+/t14-,16-,18-,19-,20+,21-,23+,24+,25+/m1/s1

> <PUBCHEM_IUPAC_INCHIKEY>
YXCPQONSMLKCHP-GKBUEBNRSA-N

> <PUBCHEM_XLOGP3_AA>
0.1

> <PUBCHEM_EXACT_MASS>
506.17881177

> <PUBCHEM_MOLECULAR_FORMULA>
C25H30O11

> <PUBCHEM_MOLECULAR_WEIGHT>
506.5

> <PUBCHEM_OPENEYE_CAN_SMILES>
CC1(CCC2C1C(OC=C2C(=O)O)OC3C(C(C(C(O3)COC(=O)C=CC4=CC=CC=C4)O)O)O)O

> <PUBCHEM_OPENEYE_ISO_SMILES>
C[C@@]1(CC[C@H]2[C@@H]1[C@@H](OC=C2C(=O)O)O[C@H]3[C@@H]([C@H]([C@@H]([C@H](O3)COC(=O)/C=C/C4=CC=CC=C4)O)O)O)O

> <PUBCHEM_CACTVS_TPSA>
172

> <PUBCHEM_MONOISOTOPIC_WEIGHT>
506.17881177

> <PUBCHEM_TOTAL_CHARGE>
0

> <PUBCHEM_HEAVY_ATOM_COUNT>
36

> <PUBCHEM_ATOM_DEF_STEREO_COUNT>
9

> <PUBCHEM_ATOM_UDEF_STEREO_COUNT>
0

> <PUBCHEM_BOND_DEF_STEREO_COUNT>
1

> <PUBCHEM_BOND_UDEF_STEREO_COUNT>
0

> <PUBCHEM_ISOTOPIC_ATOM_COUNT>
0

> <PUBCHEM_COMPONENT_COUNT>
1

> <PUBCHEM_CACTVS_TAUTO_COUNT>
-1

> <PUBCHEM_COORDINATE_TYPE>
1
5
255

> <PUBCHEM_BONDANNOTATIONS>
13  1  6
12  37  6
14  38  6
26  27  5
17  3  6
21  3  5
31  32  8
31  33  8
32  34  8
33  35  8
34  36  8
35  36  8
22  5  6
24  7  5
25  8  6

$$$$
