 
  -OEChem-10192104262D

 76 79  0     1  0  0  0  0  0999 V2000
    6.8671    2.4720    0.0000 O   0  0  0  0  0  0  0  0  0  0  0  0
    7.7331   -0.0280    0.0000 O   0  0  0  0  0  0  0  0  0  0  0  0
    6.0010   -0.0280    0.0000 O   0  0  0  0  0  0  0  0  0  0  0  0
    4.2690   -2.0280    0.0000 O   0  0  0  0  0  0  0  0  0  0  0  0
    6.3671    6.3380    0.0000 O   0  0  0  0  0  0  0  0  0  0  0  0
    9.4651    0.9720    0.0000 O   0  0  0  0  0  0  0  0  0  0  0  0
    9.4651    2.9720    0.0000 O   0  0  0  0  0  0  0  0  0  0  0  0
    5.1350   -3.5280    0.0000 O   0  0  0  0  0  0  0  0  0  0  0  0
    6.0010   -3.0280    0.0000 O   0  0  0  0  0  0  0  0  0  0  0  0
    7.7331   -2.0280    0.0000 O   0  0  0  0  0  0  0  0  0  0  0  0
    2.5369   -3.0280    0.0000 O   0  0  0  0  0  0  0  0  0  0  0  0
    5.1350    1.4720    0.0000 O   0  0  0  0  0  0  0  0  0  0  0  0
    2.5369   -5.0280    0.0000 O   0  0  0  0  0  0  0  0  0  0  0  0
    4.2690   -6.0280    0.0000 O   0  0  0  0  0  0  0  0  0  0  0  0
    4.2690    0.9720    0.0000 O   0  0  0  0  0  0  0  0  0  0  0  0
    6.0010   -6.0280    0.0000 O   0  0  0  0  0  0  0  0  0  0  0  0
    7.7331    0.9720    0.0000 C   0  0  1  0  0  0  0  0  0  0  0  0
    7.7331    2.9720    0.0000 C   0  0  2  0  0  0  0  0  0  0  0  0
    8.5991    1.4720    0.0000 C   0  0  1  0  0  0  0  0  0  0  0  0
    8.5991    2.4720    0.0000 C   0  0  1  0  0  0  0  0  0  0  0  0
    6.8671    1.4720    0.0000 C   0  0  1  0  0  0  0  0  0  0  0  0
    5.1350   -1.5280    0.0000 C   0  0  1  0  0  0  0  0  0  0  0  0
    6.8671   -0.5280    0.0000 C   0  0  2  0  0  0  0  0  0  0  0  0
    6.0010   -2.0280    0.0000 C   0  0  1  0  0  0  0  0  0  0  0  0
    6.8671   -1.5280    0.0000 C   0  0  1  0  0  0  0  0  0  0  0  0
    7.7331    3.9720    0.0000 C   0  0  0  0  0  0  0  0  0  0  0  0
    5.1350   -0.5280    0.0000 C   0  0  1  0  0  0  0  0  0  0  0  0
    6.8671    4.4720    0.0000 C   0  0  0  0  0  0  0  0  0  0  0  0
    6.8671    5.4720    0.0000 C   0  0  3  0  0  0  0  0  0  0  0  0
    4.2690   -3.0280    0.0000 C   0  0  2  0  0  0  0  0  0  0  0  0
    3.4030   -3.5280    0.0000 C   0  0  1  0  0  0  0  0  0  0  0  0
    6.0010    0.9720    0.0000 C   0  0  0  0  0  0  0  0  0  0  0  0
    3.4030   -4.5280    0.0000 C   0  0  2  0  0  0  0  0  0  0  0  0
    7.3671    6.3380    0.0000 C   0  0  0  0  0  0  0  0  0  0  0  0
    4.2690   -5.0280    0.0000 C   0  0  2  0  0  0  0  0  0  0  0  0
    5.1350   -4.5280    0.0000 C   0  0  1  0  0  0  0  0  0  0  0  0
    4.2690   -0.0280    0.0000 C   0  0  0  0  0  0  0  0  0  0  0  0
    6.0010   -5.0280    0.0000 C   0  0  0  0  0  0  0  0  0  0  0  0
    7.1962    0.6620    0.0000 H   0  0  0  0  0  0  0  0  0  0  0  0
    7.1962    3.2820    0.0000 H   0  0  0  0  0  0  0  0  0  0  0  0
    8.5991    0.8520    0.0000 H   0  0  0  0  0  0  0  0  0  0  0  0
    8.5991    3.0920    0.0000 H   0  0  0  0  0  0  0  0  0  0  0  0
    6.3301    1.7820    0.0000 H   0  0  0  0  0  0  0  0  0  0  0  0
    5.1350   -2.1480    0.0000 H   0  0  0  0  0  0  0  0  0  0  0  0
    7.4040   -0.8380    0.0000 H   0  0  0  0  0  0  0  0  0  0  0  0
    5.4641   -2.3380    0.0000 H   0  0  0  0  0  0  0  0  0  0  0  0
    6.8671   -2.1480    0.0000 H   0  0  0  0  0  0  0  0  0  0  0  0
    5.1350    0.0920    0.0000 H   0  0  0  0  0  0  0  0  0  0  0  0
    8.3437    3.8643    0.0000 H   0  0  0  0  0  0  0  0  0  0  0  0
    7.9451    4.5546    0.0000 H   0  0  0  0  0  0  0  0  0  0  0  0
    6.2565    4.5796    0.0000 H   0  0  0  0  0  0  0  0  0  0  0  0
    6.6550    3.8894    0.0000 H   0  0  0  0  0  0  0  0  0  0  0  0
    6.2682    5.3115    0.0000 H   0  0  0  0  0  0  0  0  0  0  0  0
    3.7320   -2.7180    0.0000 H   0  0  0  0  0  0  0  0  0  0  0  0
    3.4030   -2.9080    0.0000 H   0  0  0  0  0  0  0  0  0  0  0  0
    5.6025    0.4970    0.0000 H   0  0  0  0  0  0  0  0  0  0  0  0
    6.3996    0.4970    0.0000 H   0  0  0  0  0  0  0  0  0  0  0  0
    3.4030   -5.1480    0.0000 H   0  0  0  0  0  0  0  0  0  0  0  0
    7.9497    6.1260    0.0000 H   0  0  0  0  0  0  0  0  0  0  0  0
    7.4747    6.9486    0.0000 H   0  0  0  0  0  0  0  0  0  0  0  0
    4.8059   -5.3380    0.0000 H   0  0  0  0  0  0  0  0  0  0  0  0
    5.6720   -4.2180    0.0000 H   0  0  0  0  0  0  0  0  0  0  0  0
    3.6584    0.0796    0.0000 H   0  0  0  0  0  0  0  0  0  0  0  0
    4.0569   -0.6106    0.0000 H   0  0  0  0  0  0  0  0  0  0  0  0
   10.0021    1.2820    0.0000 H   0  0  0  0  0  0  0  0  0  0  0  0
    9.4651    3.5920    0.0000 H   0  0  0  0  0  0  0  0  0  0  0  0
    6.5380   -3.3380    0.0000 H   0  0  0  0  0  0  0  0  0  0  0  0
    8.2700   -1.7180    0.0000 H   0  0  0  0  0  0  0  0  0  0  0  0
    6.6116   -5.1357    0.0000 H   0  0  0  0  0  0  0  0  0  0  0  0
    6.2131   -4.4454    0.0000 H   0  0  0  0  0  0  0  0  0  0  0  0
    2.0000   -3.3380    0.0000 H   0  0  0  0  0  0  0  0  0  0  0  0
    5.1350    2.0920    0.0000 H   0  0  0  0  0  0  0  0  0  0  0  0
    2.5369   -5.6480    0.0000 H   0  0  0  0  0  0  0  0  0  0  0  0
    3.7320   -6.3380    0.0000 H   0  0  0  0  0  0  0  0  0  0  0  0
    3.7320    1.2820    0.0000 H   0  0  0  0  0  0  0  0  0  0  0  0
    6.5380   -6.3380    0.0000 H   0  0  0  0  0  0  0  0  0  0  0  0
  1 18  1  0  0  0  0
  1 21  1  0  0  0  0
 17  2  1  6  0  0  0
 23  2  1  1  0  0  0
  3 23  1  0  0  0  0
  3 27  1  0  0  0  0
 22  4  1  6  0  0  0
 30  4  1  6  0  0  0
  5 29  1  0  0  0  0
  5 34  1  0  0  0  0
 19  6  1  1  0  0  0
  6 65  1  0  0  0  0
 20  7  1  6  0  0  0
  7 66  1  0  0  0  0
  8 30  1  0  0  0  0
  8 36  1  0  0  0  0
 24  9  1  1  0  0  0
  9 67  1  0  0  0  0
 25 10  1  6  0  0  0
 10 68  1  0  0  0  0
 31 11  1  1  0  0  0
 11 71  1  0  0  0  0
 12 32  1  0  0  0  0
 12 72  1  0  0  0  0
 33 13  1  6  0  0  0
 13 73  1  0  0  0  0
 35 14  1  6  0  0  0
 14 74  1  0  0  0  0
 15 37  1  0  0  0  0
 15 75  1  0  0  0  0
 16 38  1  0  0  0  0
 16 76  1  0  0  0  0
 17 19  1  0  0  0  0
 17 21  1  0  0  0  0
 17 39  1  0  0  0  0
 18 20  1  0  0  0  0
 18 26  1  1  0  0  0
 18 40  1  0  0  0  0
 19 20  1  0  0  0  0
 19 41  1  0  0  0  0
 20 42  1  0  0  0  0
 21 32  1  1  0  0  0
 21 43  1  0  0  0  0
 22 24  1  0  0  0  0
 22 27  1  0  0  0  0
 22 44  1  0  0  0  0
 23 25  1  0  0  0  0
 23 45  1  0  0  0  0
 24 25  1  0  0  0  0
 24 46  1  0  0  0  0
 25 47  1  0  0  0  0
 26 28  1  0  0  0  0
 26 49  1  0  0  0  0
 26 50  1  0  0  0  0
 27 37  1  1  0  0  0
 27 48  1  0  0  0  0
 28 29  1  0  0  0  0
 28 51  1  0  0  0  0
 28 52  1  0  0  0  0
 29 34  1  0  0  0  0
 29 53  1  0  0  0  0
 30 31  1  0  0  0  0
 30 54  1  0  0  0  0
 31 33  1  0  0  0  0
 31 55  1  0  0  0  0
 32 56  1  0  0  0  0
 32 57  1  0  0  0  0
 33 35  1  0  0  0  0
 33 58  1  0  0  0  0
 34 59  1  0  0  0  0
 34 60  1  0  0  0  0
 35 36  1  0  0  0  0
 35 61  1  0  0  0  0
 36 38  1  6  0  0  0
 36 62  1  0  0  0  0
 37 63  1  0  0  0  0
 37 64  1  0  0  0  0
 38 69  1  0  0  0  0
 38 70  1  0  0  0  0
M  END
> <PUBCHEM_COMPOUND_CID>
101108813

> <PUBCHEM_COMPOUND_CANONICALIZED>
1

> <PUBCHEM_CACTVS_COMPLEXITY>
746

> <PUBCHEM_CACTVS_HBOND_ACCEPTOR>
16

> <PUBCHEM_CACTVS_HBOND_DONOR>
10

> <PUBCHEM_CACTVS_ROTATABLE_BOND>
10

> <PUBCHEM_CACTVS_SUBSKEYS>
AAADcfB4PgAAAAAAAAAAAAAAEgAAAAAAAAAkSJAAAAAAAAAAAAAAGgAACAAACBSwgAMACAAABgAAAAAAAAAAAAAAAAAAAAAAAAAREAIAAAAiQAAFAAAHAAHA4KwAAAAAAAAAAAAAAAAAAAAAAAAAAAAAAA==

> <PUBCHEM_IUPAC_OPENEYE_NAME>
(2S,3R,4S,5R,6R)-2-[(2R,3S,4R,5R,6S)-6-[(2R,3S,4R,5R,6S)-4,5-dihydroxy-2-(hydroxymethyl)-6-[2-(oxiran-2-yl)ethyl]tetrahydropyran-3-yl]oxy-4,5-dihydroxy-2-(hydroxymethyl)tetrahydropyran-3-yl]oxy-6-(hydroxymethyl)tetrahydropyran-3,4,5-triol

> <PUBCHEM_IUPAC_CAS_NAME>
(2S,3R,4S,5R,6R)-2-[[(2R,3S,4R,5R,6S)-6-[[(2R,3S,4R,5R,6S)-4,5-dihydroxy-2-(hydroxymethyl)-6-[2-(2-oxiranyl)ethyl]-3-oxanyl]oxy]-4,5-dihydroxy-2-(hydroxymethyl)-3-oxanyl]oxy]-6-(hydroxymethyl)oxane-3,4,5-triol

> <PUBCHEM_IUPAC_NAME_MARKUP>
(2<I>S</I>,3<I>R</I>,4<I>S</I>,5<I>R</I>,6<I>R</I>)-2-[(2<I>R</I>,3<I>S</I>,4<I>R</I>,5<I>R</I>,6<I>S</I>)-6-[(2<I>R</I>,3<I>S</I>,4<I>R</I>,5<I>R</I>,6<I>S</I>)-4,5-dihydroxy-2-(hydroxymethyl)-6-[2-(oxiran-2-yl)ethyl]oxan-3-yl]oxy-4,5-dihydroxy-2-(hydroxymethyl)oxan-3-yl]oxy-6-(hydroxymethyl)oxane-3,4,5-triol

> <PUBCHEM_IUPAC_NAME>
(2S,3R,4S,5R,6R)-2-[(2R,3S,4R,5R,6S)-6-[(2R,3S,4R,5R,6S)-4,5-dihydroxy-2-(hydroxymethyl)-6-[2-(oxiran-2-yl)ethyl]oxan-3-yl]oxy-4,5-dihydroxy-2-(hydroxymethyl)oxan-3-yl]oxy-6-(hydroxymethyl)oxane-3,4,5-triol

> <PUBCHEM_IUPAC_SYSTEMATIC_NAME>
(2R,3R,4S,5R,6S)-2-(hydroxymethyl)-6-[(2R,3S,4R,5R,6S)-2-(hydroxymethyl)-6-[(2R,3S,4R,5R,6S)-2-(hydroxymethyl)-4,5-bis(oxidanyl)-6-[2-(oxiran-2-yl)ethyl]oxan-3-yl]oxy-4,5-bis(oxidanyl)oxan-3-yl]oxy-oxane-3,4,5-triol

> <PUBCHEM_IUPAC_TRADITIONAL_NAME>
(2S,3R,4S,5R,6R)-2-[(2R,3S,4R,5R,6S)-6-[(2R,3S,4R,5R,6S)-4,5-dihydroxy-2-methylol-6-[2-(oxiran-2-yl)ethyl]tetrahydropyran-3-yl]oxy-4,5-dihydroxy-2-methylol-tetrahydropyran-3-yl]oxy-6-methylol-tetrahydropyran-3,4,5-triol

> <PUBCHEM_IUPAC_INCHI>
InChI=1S/C22H38O16/c23-3-9-13(27)14(28)17(31)21(35-9)38-20-11(5-25)36-22(18(32)16(20)30)37-19-10(4-24)34-8(12(26)15(19)29)2-1-7-6-33-7/h7-32H,1-6H2/t7?,8-,9+,10+,11+,12-,13-,14-,15+,16+,17+,18+,19+,20+,21-,22-/m0/s1

> <PUBCHEM_IUPAC_INCHIKEY>
SXCZBMAQOUUESU-KMOZDUDMSA-N

> <PUBCHEM_XLOGP3_AA>
-5.9

> <PUBCHEM_EXACT_MASS>
558.21598512

> <PUBCHEM_MOLECULAR_FORMULA>
C22H38O16

> <PUBCHEM_MOLECULAR_WEIGHT>
558.5

> <PUBCHEM_OPENEYE_CAN_SMILES>
C1C(O1)CCC2C(C(C(C(O2)CO)OC3C(C(C(C(O3)CO)OC4C(C(C(C(O4)CO)O)O)O)O)O)O)O

> <PUBCHEM_OPENEYE_ISO_SMILES>
C1C(O1)CC[C@H]2[C@@H]([C@H]([C@@H]([C@H](O2)CO)O[C@H]3[C@@H]([C@H]([C@@H]([C@H](O3)CO)O[C@H]4[C@@H]([C@H]([C@H]([C@H](O4)CO)O)O)O)O)O)O)O

> <PUBCHEM_CACTVS_TPSA>
261

> <PUBCHEM_MONOISOTOPIC_WEIGHT>
558.21598512

> <PUBCHEM_TOTAL_CHARGE>
0

> <PUBCHEM_HEAVY_ATOM_COUNT>
38

> <PUBCHEM_ATOM_DEF_STEREO_COUNT>
15

> <PUBCHEM_ATOM_UDEF_STEREO_COUNT>
1

> <PUBCHEM_BOND_DEF_STEREO_COUNT>
0

> <PUBCHEM_BOND_UDEF_STEREO_COUNT>
0

> <PUBCHEM_ISOTOPIC_ATOM_COUNT>
0

> <PUBCHEM_COMPONENT_COUNT>
1

> <PUBCHEM_CACTVS_TAUTO_COUNT>
-1

> <PUBCHEM_COORDINATE_TYPE>
1
5
255

> <PUBCHEM_BONDANNOTATIONS>
25  10  6
31  11  5
33  13  6
35  14  6
18  26  5
17  2  6
23  2  5
21  32  5
27  37  5
29  28  3
36  38  6
22  4  6
30  4  6
19  6  5
20  7  6
24  9  5

$$$$
