 
  -OEChem-10192103392D

 57 59  0     1  0  0  0  0  0999 V2000
    6.0010    0.4050    0.0000 O   0  0  0  0  0  0  0  0  0  0  0  0
    6.8671   -1.0950    0.0000 O   0  0  0  0  0  0  0  0  0  0  0  0
    8.9900    2.6602    0.0000 O   0  0  0  0  0  0  0  0  0  0  0  0
   10.2629    0.9050    0.0000 O   0  0  0  0  0  0  0  0  0  0  0  0
    5.1350   -1.0950    0.0000 O   0  0  0  0  0  0  0  0  0  0  0  0
    9.9685   -1.0565    0.0000 O   0  0  0  0  0  0  0  0  0  0  0  0
    8.3221   -1.5946    0.0000 O   0  0  0  0  0  0  0  0  0  0  0  0
    6.8671   -3.0950    0.0000 O   0  0  0  0  0  0  0  0  0  0  0  0
    6.0010    3.4050    0.0000 O   0  0  0  0  0  0  0  0  0  0  0  0
    5.1350   -4.0950    0.0000 O   0  0  0  0  0  0  0  0  0  0  0  0
    3.4030   -3.0950    0.0000 O   0  0  0  0  0  0  0  0  0  0  0  0
    7.7331    3.4050    0.0000 O   0  0  0  0  0  0  0  0  0  0  0  0
    2.5369   -1.5950    0.0000 O   0  0  0  0  0  0  0  0  0  0  0  0
    7.7331    0.4050    0.0000 C   0  0  1  0  0  0  0  0  0  0  0  0
    7.7331    1.4050    0.0000 C   0  0  2  0  0  0  0  0  0  0  0  0
    8.6793    0.1003    0.0000 C   0  0  2  0  0  0  0  0  0  0  0  0
    8.6793    1.7097    0.0000 C   0  0  1  0  0  0  0  0  0  0  0  0
    9.2629    0.9050    0.0000 C   0  0  2  0  0  0  0  0  0  0  0  0
    6.8671   -0.0950    0.0000 C   0  0  1  0  0  0  0  0  0  0  0  0
    6.8671    1.9050    0.0000 C   0  0  0  0  0  0  0  0  0  0  0  0
    8.9900   -0.8503    0.0000 C   0  0  0  0  0  0  0  0  0  0  0  0
    6.0010    1.4050    0.0000 C   0  0  0  0  0  0  0  0  0  0  0  0
    6.0010   -1.5950    0.0000 C   0  0  2  0  0  0  0  0  0  0  0  0
    6.0010   -2.5950    0.0000 C   0  0  1  0  0  0  0  0  0  0  0  0
    5.1350   -3.0950    0.0000 C   0  0  2  0  0  0  0  0  0  0  0  0
    6.8671    2.9050    0.0000 C   0  0  0  0  0  0  0  0  0  0  0  0
    4.2690   -2.5950    0.0000 C   0  0  1  0  0  0  0  0  0  0  0  0
    4.2690   -1.5950    0.0000 C   0  0  1  0  0  0  0  0  0  0  0  0
    3.4030   -1.0950    0.0000 C   0  0  0  0  0  0  0  0  0  0  0  0
   10.2791   -2.0070    0.0000 C   0  0  0  0  0  0  0  0  0  0  0  0
    6.0010    4.4050    0.0000 C   0  0  0  0  0  0  0  0  0  0  0  0
    7.8230   -0.4402    0.0000 H   0  0  0  0  0  0  0  0  0  0  0  0
    7.8230    2.2502    0.0000 H   0  0  0  0  0  0  0  0  0  0  0  0
    8.2418   -0.3391    0.0000 H   0  0  0  0  0  0  0  0  0  0  0  0
    8.2418    2.1491    0.0000 H   0  0  0  0  0  0  0  0  0  0  0  0
    9.5446    1.4573    0.0000 H   0  0  0  0  0  0  0  0  0  0  0  0
    7.4040   -0.4050    0.0000 H   0  0  0  0  0  0  0  0  0  0  0  0
    5.4641    1.7150    0.0000 H   0  0  0  0  0  0  0  0  0  0  0  0
    6.0010   -0.9750    0.0000 H   0  0  0  0  0  0  0  0  0  0  0  0
    9.5966    2.7881    0.0000 H   0  0  0  0  0  0  0  0  0  0  0  0
   10.5729    1.4419    0.0000 H   0  0  0  0  0  0  0  0  0  0  0  0
    6.0010   -3.2150    0.0000 H   0  0  0  0  0  0  0  0  0  0  0  0
    4.5981   -3.4050    0.0000 H   0  0  0  0  0  0  0  0  0  0  0  0
    4.2690   -3.2150    0.0000 H   0  0  0  0  0  0  0  0  0  0  0  0
    4.2690   -0.9750    0.0000 H   0  0  0  0  0  0  0  0  0  0  0  0
    3.8015   -0.6201    0.0000 H   0  0  0  0  0  0  0  0  0  0  0  0
    3.0044   -0.6201    0.0000 H   0  0  0  0  0  0  0  0  0  0  0  0
    6.8671   -3.7150    0.0000 H   0  0  0  0  0  0  0  0  0  0  0  0
    4.5981   -4.4050    0.0000 H   0  0  0  0  0  0  0  0  0  0  0  0
    3.4030   -3.7150    0.0000 H   0  0  0  0  0  0  0  0  0  0  0  0
    9.6898   -2.1996    0.0000 H   0  0  0  0  0  0  0  0  0  0  0  0
   10.4717   -2.5963    0.0000 H   0  0  0  0  0  0  0  0  0  0  0  0
   10.8685   -1.8144    0.0000 H   0  0  0  0  0  0  0  0  0  0  0  0
    6.6210    4.4050    0.0000 H   0  0  0  0  0  0  0  0  0  0  0  0
    6.0010    5.0250    0.0000 H   0  0  0  0  0  0  0  0  0  0  0  0
    5.3810    4.4050    0.0000 H   0  0  0  0  0  0  0  0  0  0  0  0
    2.0000   -1.2850    0.0000 H   0  0  0  0  0  0  0  0  0  0  0  0
  1 19  1  0  0  0  0
  1 22  1  0  0  0  0
 19  2  1  6  0  0  0
 23  2  1  1  0  0  0
 17  3  1  6  0  0  0
  3 40  1  0  0  0  0
 18  4  1  6  0  0  0
  4 41  1  0  0  0  0
  5 23  1  0  0  0  0
  5 28  1  0  0  0  0
  6 21  1  0  0  0  0
  6 30  1  0  0  0  0
  7 21  2  0  0  0  0
 24  8  1  6  0  0  0
  8 48  1  0  0  0  0
  9 26  1  0  0  0  0
  9 31  1  0  0  0  0
 25 10  1  1  0  0  0
 10 49  1  0  0  0  0
 27 11  1  6  0  0  0
 11 50  1  0  0  0  0
 12 26  2  0  0  0  0
 13 29  1  0  0  0  0
 13 57  1  0  0  0  0
 14 15  1  0  0  0  0
 14 16  1  0  0  0  0
 14 19  1  0  0  0  0
 14 32  1  6  0  0  0
 15 17  1  0  0  0  0
 15 20  1  0  0  0  0
 15 33  1  6  0  0  0
 16 18  1  0  0  0  0
 16 21  1  6  0  0  0
 16 34  1  0  0  0  0
 17 18  1  0  0  0  0
 17 35  1  0  0  0  0
 18 36  1  0  0  0  0
 19 37  1  0  0  0  0
 20 22  2  0  0  0  0
 20 26  1  0  0  0  0
 22 38  1  0  0  0  0
 23 24  1  0  0  0  0
 23 39  1  0  0  0  0
 24 25  1  0  0  0  0
 24 42  1  0  0  0  0
 25 27  1  0  0  0  0
 25 43  1  0  0  0  0
 27 28  1  0  0  0  0
 27 44  1  0  0  0  0
 28 29  1  1  0  0  0
 28 45  1  0  0  0  0
 29 46  1  0  0  0  0
 29 47  1  0  0  0  0
 30 51  1  0  0  0  0
 30 52  1  0  0  0  0
 30 53  1  0  0  0  0
 31 54  1  0  0  0  0
 31 55  1  0  0  0  0
 31 56  1  0  0  0  0
M  END
> <PUBCHEM_COMPOUND_CID>
11004866

> <PUBCHEM_COMPOUND_CANONICALIZED>
1

> <PUBCHEM_CACTVS_COMPLEXITY>
711

> <PUBCHEM_CACTVS_HBOND_ACCEPTOR>
13

> <PUBCHEM_CACTVS_HBOND_DONOR>
6

> <PUBCHEM_CACTVS_ROTATABLE_BOND>
7

> <PUBCHEM_CACTVS_SUBSKEYS>
AAADceB4PAAAAAAAAAAAAAAAAAAAAYAAAAAkQAAAAAAAAEAAAAAAGgAACAAADRSwgAMCCAAABgCIAgDSCAAACAAgIAAAAAEAAEgRFBYAIQAiQAAF4AAHIIHK7PzOgAAAAAAAAAAAAAAAAAAAAYAADCAAAA==

> <PUBCHEM_IUPAC_OPENEYE_NAME>
dimethyl (1S,4aS,5S,6R,7R,7aS)-5,6-dihydroxy-1-[(2S,3R,4S,5S,6R)-3,4,5-trihydroxy-6-(hydroxymethyl)tetrahydropyran-2-yl]oxy-1,4a,5,6,7,7a-hexahydrocyclopenta[c]pyran-4,7-dicarboxylate

> <PUBCHEM_IUPAC_CAS_NAME>
(1S,4aS,5S,6R,7R,7aS)-5,6-dihydroxy-1-[[(2S,3R,4S,5S,6R)-3,4,5-trihydroxy-6-(hydroxymethyl)-2-oxanyl]oxy]-1,4a,5,6,7,7a-hexahydrocyclopenta[c]pyran-4,7-dicarboxylic acid dimethyl ester

> <PUBCHEM_IUPAC_NAME_MARKUP>
dimethyl (1<I>S</I>,4<I>a</I><I>S</I>,5<I>S</I>,6<I>R</I>,7<I>R</I>,7<I>a</I><I>S</I>)-5,6-dihydroxy-1-[(2<I>S</I>,3<I>R</I>,4<I>S</I>,5<I>S</I>,6<I>R</I>)-3,4,5-trihydroxy-6-(hydroxymethyl)oxan-2-yl]oxy-1,4<I>a</I>,5,6,7,7<I>a</I>-hexahydrocyclopenta[c]pyran-4,7-dicarboxylate

> <PUBCHEM_IUPAC_NAME>
dimethyl (1S,4aS,5S,6R,7R,7aS)-5,6-dihydroxy-1-[(2S,3R,4S,5S,6R)-3,4,5-trihydroxy-6-(hydroxymethyl)oxan-2-yl]oxy-1,4a,5,6,7,7a-hexahydrocyclopenta[c]pyran-4,7-dicarboxylate

> <PUBCHEM_IUPAC_SYSTEMATIC_NAME>
dimethyl (1S,4aS,5S,6R,7R,7aS)-1-[(2S,3R,4S,5S,6R)-6-(hydroxymethyl)-3,4,5-tris(oxidanyl)oxan-2-yl]oxy-5,6-bis(oxidanyl)-1,4a,5,6,7,7a-hexahydrocyclopenta[c]pyran-4,7-dicarboxylate

> <PUBCHEM_IUPAC_TRADITIONAL_NAME>
(1S,4aS,5S,6R,7R,7aS)-5,6-dihydroxy-1-[(2S,3R,4S,5S,6R)-3,4,5-trihydroxy-6-methylol-tetrahydropyran-2-yl]oxy-1,4a,5,6,7,7a-hexahydrocyclopenta[c]pyran-4,7-dicarboxylic acid dimethyl ester

> <PUBCHEM_IUPAC_INCHI>
InChI=1S/C18H26O13/c1-27-15(25)5-4-29-17(8-7(5)11(21)12(22)9(8)16(26)28-2)31-18-14(24)13(23)10(20)6(3-19)30-18/h4,6-14,17-24H,3H2,1-2H3/t6-,7-,8+,9-,10-,11+,12-,13+,14-,17+,18+/m1/s1

> <PUBCHEM_IUPAC_INCHIKEY>
BSLDUMMCFUUGHA-QVCFAWKZSA-N

> <PUBCHEM_XLOGP3_AA>
-2.7

> <PUBCHEM_EXACT_MASS>
450.13734088

> <PUBCHEM_MOLECULAR_FORMULA>
C18H26O13

> <PUBCHEM_MOLECULAR_WEIGHT>
450.4

> <PUBCHEM_OPENEYE_CAN_SMILES>
COC(=O)C1C2C(C(C1O)O)C(=COC2OC3C(C(C(C(O3)CO)O)O)O)C(=O)OC

> <PUBCHEM_OPENEYE_ISO_SMILES>
COC(=O)[C@@H]1[C@@H]2[C@H]([C@@H]([C@@H]1O)O)C(=CO[C@H]2O[C@H]3[C@@H]([C@H]([C@@H]([C@H](O3)CO)O)O)O)C(=O)OC

> <PUBCHEM_CACTVS_TPSA>
202

> <PUBCHEM_MONOISOTOPIC_WEIGHT>
450.13734088

> <PUBCHEM_TOTAL_CHARGE>
0

> <PUBCHEM_HEAVY_ATOM_COUNT>
31

> <PUBCHEM_ATOM_DEF_STEREO_COUNT>
11

> <PUBCHEM_ATOM_UDEF_STEREO_COUNT>
0

> <PUBCHEM_BOND_DEF_STEREO_COUNT>
0

> <PUBCHEM_BOND_UDEF_STEREO_COUNT>
0

> <PUBCHEM_ISOTOPIC_ATOM_COUNT>
0

> <PUBCHEM_COMPONENT_COUNT>
1

> <PUBCHEM_CACTVS_TAUTO_COUNT>
-1

> <PUBCHEM_COORDINATE_TYPE>
1
5
255

> <PUBCHEM_BONDANNOTATIONS>
25  10  5
27  11  6
14  32  6
15  33  6
16  21  6
19  2  6
23  2  5
28  29  5
17  3  6
18  4  6
24  8  6

$$$$
