 
  -OEChem-10192103522D

 67 69  0     1  0  0  0  0  0999 V2000
    5.9790    0.5044    0.0000 O   0  0  0  0  0  0  0  0  0  0  0  0
    8.6874    0.8661    0.0000 O   0  0  0  0  0  0  0  0  0  0  0  0
    6.8671   -2.0615    0.0000 O   0  0  0  0  0  0  0  0  0  0  0  0
    6.7458    1.9971    0.0000 O   0  0  0  0  0  0  0  0  0  0  0  0
    5.1350   -2.0615    0.0000 O   0  0  0  0  0  0  0  0  0  0  0  0
    8.6370   -1.0305    0.0000 O   0  0  0  0  0  0  0  0  0  0  0  0
    6.8671   -4.0615    0.0000 O   0  0  0  0  0  0  0  0  0  0  0  0
    5.1350   -5.0615    0.0000 O   0  0  0  0  0  0  0  0  0  0  0  0
    3.4030   -4.0615    0.0000 O   0  0  0  0  0  0  0  0  0  0  0  0
    4.2350   -0.5238    0.0000 O   0  0  0  0  0  0  0  0  0  0  0  0
    2.5369   -2.5615    0.0000 O   0  0  0  0  0  0  0  0  0  0  0  0
    7.7551    0.5044    0.0000 C   0  0  3  0  0  0  0  0  0  0  0  0
    6.8671   -1.0615    0.0000 C   0  0  1  0  0  0  0  0  0  0  0  0
    7.7671   -0.5372    0.0000 C   0  0  3  0  0  0  0  0  0  0  0  0
    6.8910    1.0077    0.0000 C   0  0  1  0  0  0  0  0  0  0  0  0
    5.9670   -0.5372    0.0000 C   0  0  3  0  0  0  0  0  0  0  0  0
    7.4288    2.7275    0.0000 C   0  0  3  0  0  0  0  0  0  0  0  0
    8.9858    1.8205    0.0000 C   0  0  3  0  0  0  0  0  0  0  0  0
    8.4257    2.6489    0.0000 C   0  0  0  0  0  0  0  0  0  0  0  0
    6.0010   -2.5615    0.0000 C   0  0  1  0  0  0  0  0  0  0  0  0
    6.0010   -3.5615    0.0000 C   0  0  3  0  0  0  0  0  0  0  0  0
    7.0670    3.6598    0.0000 C   0  0  0  0  0  0  0  0  0  0  0  0
    5.1350   -4.0615    0.0000 C   0  0  3  0  0  0  0  0  0  0  0  0
    4.2690   -3.5615    0.0000 C   0  0  1  0  0  0  0  0  0  0  0  0
    5.0971   -1.0305    0.0000 C   0  0  0  0  0  0  0  0  0  0  0  0
    4.2690   -2.5615    0.0000 C   0  0  3  0  0  0  0  0  0  0  0  0
    7.6935    4.4392    0.0000 C   0  0  0  0  0  0  0  0  0  0  0  0
    9.9752    1.9658    0.0000 C   0  0  0  0  0  0  0  0  0  0  0  0
    3.4030   -2.0615    0.0000 C   0  0  0  0  0  0  0  0  0  0  0  0
    7.3318    5.3715    0.0000 C   0  0  0  0  0  0  0  0  0  0  0  0
    8.6817    4.2864    0.0000 C   0  0  0  0  0  0  0  0  0  0  0  0
    8.2687    0.1571    0.0000 H   0  0  0  0  0  0  0  0  0  0  0  0
    7.4046   -1.3704    0.0000 H   0  0  0  0  0  0  0  0  0  0  0  0
    8.3010   -0.2220    0.0000 H   0  0  0  0  0  0  0  0  0  0  0  0
    6.1295    1.3853    0.0000 H   0  0  0  0  0  0  0  0  0  0  0  0
    5.4331   -0.2220    0.0000 H   0  0  0  0  0  0  0  0  0  0  0  0
    6.8200    2.8451    0.0000 H   0  0  0  0  0  0  0  0  0  0  0  0
    9.3884    1.3490    0.0000 H   0  0  0  0  0  0  0  0  0  0  0  0
    9.0037    2.8732    0.0000 H   0  0  0  0  0  0  0  0  0  0  0  0
    8.3356    3.2624    0.0000 H   0  0  0  0  0  0  0  0  0  0  0  0
    6.5380   -2.8715    0.0000 H   0  0  0  0  0  0  0  0  0  0  0  0
    6.0010   -4.1815    0.0000 H   0  0  0  0  0  0  0  0  0  0  0  0
    6.6586    4.1262    0.0000 H   0  0  0  0  0  0  0  0  0  0  0  0
    6.5367    3.3385    0.0000 H   0  0  0  0  0  0  0  0  0  0  0  0
    4.5981   -4.3715    0.0000 H   0  0  0  0  0  0  0  0  0  0  0  0
    4.2690   -4.1815    0.0000 H   0  0  0  0  0  0  0  0  0  0  0  0
    4.6950   -1.5024    0.0000 H   0  0  0  0  0  0  0  0  0  0  0  0
    5.4920   -1.5085    0.0000 H   0  0  0  0  0  0  0  0  0  0  0  0
    4.2690   -1.9415    0.0000 H   0  0  0  0  0  0  0  0  0  0  0  0
    7.0808    4.5340    0.0000 H   0  0  0  0  0  0  0  0  0  0  0  0
    9.1715   -0.7164    0.0000 H   0  0  0  0  0  0  0  0  0  0  0  0
   10.0652    1.3523    0.0000 H   0  0  0  0  0  0  0  0  0  0  0  0
   10.5886    2.0558    0.0000 H   0  0  0  0  0  0  0  0  0  0  0  0
    9.8852    2.5792    0.0000 H   0  0  0  0  0  0  0  0  0  0  0  0
    3.8015   -1.5865    0.0000 H   0  0  0  0  0  0  0  0  0  0  0  0
    3.0044   -1.5865    0.0000 H   0  0  0  0  0  0  0  0  0  0  0  0
    6.8671   -4.6815    0.0000 H   0  0  0  0  0  0  0  0  0  0  0  0
    7.9098    5.5958    0.0000 H   0  0  0  0  0  0  0  0  0  0  0  0
    7.1075    5.9495    0.0000 H   0  0  0  0  0  0  0  0  0  0  0  0
    6.7537    5.1472    0.0000 H   0  0  0  0  0  0  0  0  0  0  0  0
    8.5870    3.6736    0.0000 H   0  0  0  0  0  0  0  0  0  0  0  0
    9.2945    4.1916    0.0000 H   0  0  0  0  0  0  0  0  0  0  0  0
    8.7765    4.8991    0.0000 H   0  0  0  0  0  0  0  0  0  0  0  0
    4.5981   -5.3715    0.0000 H   0  0  0  0  0  0  0  0  0  0  0  0
    3.4030   -4.6815    0.0000 H   0  0  0  0  0  0  0  0  0  0  0  0
    4.2398    0.0961    0.0000 H   0  0  0  0  0  0  0  0  0  0  0  0
    2.0000   -2.2515    0.0000 H   0  0  0  0  0  0  0  0  0  0  0  0
  1 15  1  0  0  0  0
  1 16  1  0  0  0  0
  2 12  1  0  0  0  0
  2 18  1  0  0  0  0
 13  3  1  6  0  0  0
 20  3  1  6  0  0  0
  4 15  1  0  0  0  0
  4 17  1  0  0  0  0
  5 20  1  0  0  0  0
  5 26  1  0  0  0  0
  6 14  1  0  0  0  0
  6 51  1  0  0  0  0
  7 21  1  0  0  0  0
  7 57  1  0  0  0  0
  8 23  1  0  0  0  0
  8 64  1  0  0  0  0
 24  9  1  6  0  0  0
  9 65  1  0  0  0  0
 10 25  1  0  0  0  0
 10 66  1  0  0  0  0
 11 29  1  0  0  0  0
 11 67  1  0  0  0  0
 12 14  1  0  0  0  0
 12 15  1  0  0  0  0
 12 32  1  0  0  0  0
 13 14  1  0  0  0  0
 13 16  1  0  0  0  0
 13 33  1  0  0  0  0
 14 34  1  0  0  0  0
 15 35  1  6  0  0  0
 16 25  1  0  0  0  0
 16 36  1  0  0  0  0
 17 19  1  0  0  0  0
 17 22  1  0  0  0  0
 17 37  1  0  0  0  0
 18 19  1  0  0  0  0
 18 28  1  0  0  0  0
 18 38  1  0  0  0  0
 19 39  1  0  0  0  0
 19 40  1  0  0  0  0
 20 21  1  0  0  0  0
 20 41  1  0  0  0  0
 21 23  1  0  0  0  0
 21 42  1  0  0  0  0
 22 27  1  0  0  0  0
 22 43  1  0  0  0  0
 22 44  1  0  0  0  0
 23 24  1  0  0  0  0
 23 45  1  0  0  0  0
 24 26  1  0  0  0  0
 24 46  1  0  0  0  0
 25 47  1  0  0  0  0
 25 48  1  0  0  0  0
 26 29  1  0  0  0  0
 26 49  1  0  0  0  0
 27 30  1  0  0  0  0
 27 31  1  0  0  0  0
 27 50  1  0  0  0  0
 28 52  1  0  0  0  0
 28 53  1  0  0  0  0
 28 54  1  0  0  0  0
 29 55  1  0  0  0  0
 29 56  1  0  0  0  0
 30 58  1  0  0  0  0
 30 59  1  0  0  0  0
 30 60  1  0  0  0  0
 31 61  1  0  0  0  0
 31 62  1  0  0  0  0
 31 63  1  0  0  0  0
M  END
> <PUBCHEM_COMPOUND_CID>
126735973

> <PUBCHEM_COMPOUND_CANONICALIZED>
1

> <PUBCHEM_CACTVS_COMPLEXITY>
563

> <PUBCHEM_CACTVS_HBOND_ACCEPTOR>
11

> <PUBCHEM_CACTVS_HBOND_DONOR>
6

> <PUBCHEM_CACTVS_ROTATABLE_BOND>
6

> <PUBCHEM_CACTVS_SUBSKEYS>
AAADcfB4PAAAAAAAAAAAAAAAAAAAAAAAAAAkSAAABIAAAAAAAAAAGgAACAAADRSwgAMCCAAABgAAAAAAAAAAAAAAAAAAAAAAAAAREAIAAAAiQAAFAAAHAAHA4FwMAAAAAAAAAAAAAAAAAAAAAAAAAAAAAA==

> <PUBCHEM_IUPAC_OPENEYE_NAME>
(2R,5S)-2-[[(5aR,8S)-9-hydroxy-7-(hydroxymethyl)-4-isobutyl-2-methyl-2,3,4,5a,7,8,9,9a-octahydropyrano[2,3-b][1,4]dioxepin-8-yl]oxy]-6-(hydroxymethyl)tetrahydropyran-3,4,5-triol

> <PUBCHEM_IUPAC_CAS_NAME>
(2R,5S)-2-[[(5aR,8S)-9-hydroxy-7-(hydroxymethyl)-2-methyl-4-(2-methylpropyl)-2,3,4,5a,7,8,9,9a-octahydropyrano[2,3-b][1,4]dioxepin-8-yl]oxy]-6-(hydroxymethyl)oxane-3,4,5-triol

> <PUBCHEM_IUPAC_NAME_MARKUP>
(2<I>R</I>,5<I>S</I>)-2-[[(5<I>a</I><I>R</I>,8<I>S</I>)-9-hydroxy-7-(hydroxymethyl)-2-methyl-4-(2-methylpropyl)-2,3,4,5<I>a</I>,7,8,9,9<I>a</I>-octahydropyrano[2,3-b][1,4]dioxepin-8-yl]oxy]-6-(hydroxymethyl)oxane-3,4,5-triol

> <PUBCHEM_IUPAC_NAME>
(2R,5S)-2-[[(5aR,8S)-9-hydroxy-7-(hydroxymethyl)-2-methyl-4-(2-methylpropyl)-2,3,4,5a,7,8,9,9a-octahydropyrano[2,3-b][1,4]dioxepin-8-yl]oxy]-6-(hydroxymethyl)oxane-3,4,5-triol

> <PUBCHEM_IUPAC_SYSTEMATIC_NAME>
(2R,5S)-2-[[(5aR,8S)-7-(hydroxymethyl)-2-methyl-4-(2-methylpropyl)-9-oxidanyl-2,3,4,5a,7,8,9,9a-octahydropyrano[2,3-b][1,4]dioxepin-8-yl]oxy]-6-(hydroxymethyl)oxane-3,4,5-triol

> <PUBCHEM_IUPAC_TRADITIONAL_NAME>
(2R,5S)-2-[[(5aR,8S)-9-hydroxy-4-isobutyl-2-methyl-7-methylol-2,3,4,5a,7,8,9,9a-octahydropyrano[2,3-b][1,4]dioxepin-8-yl]oxy]-6-methylol-tetrahydropyran-3,4,5-triol

> <PUBCHEM_IUPAC_INCHI>
InChI=1S/C20H36O11/c1-8(2)4-10-5-9(3)27-18-16(26)17(12(7-22)30-20(18)28-10)31-19-15(25)14(24)13(23)11(6-21)29-19/h8-26H,4-7H2,1-3H3/t9?,10?,11?,12?,13-,14?,15?,16?,17-,18?,19-,20-/m1/s1

> <PUBCHEM_IUPAC_INCHIKEY>
DVJHPAIGMILKJB-PVFBCPQYSA-N

> <PUBCHEM_XLOGP3_AA>
-1.3

> <PUBCHEM_EXACT_MASS>
452.22576196

> <PUBCHEM_MOLECULAR_FORMULA>
C20H36O11

> <PUBCHEM_MOLECULAR_WEIGHT>
452.5

> <PUBCHEM_OPENEYE_CAN_SMILES>
CC1CC(OC2C(O1)C(C(C(O2)CO)OC3C(C(C(C(O3)CO)O)O)O)O)CC(C)C

> <PUBCHEM_OPENEYE_ISO_SMILES>
CC1CC(O[C@H]2C(O1)C([C@@H](C(O2)CO)O[C@@H]3C(C([C@@H](C(O3)CO)O)O)O)O)CC(C)C

> <PUBCHEM_CACTVS_TPSA>
168

> <PUBCHEM_MONOISOTOPIC_WEIGHT>
452.22576196

> <PUBCHEM_TOTAL_CHARGE>
0

> <PUBCHEM_HEAVY_ATOM_COUNT>
31

> <PUBCHEM_ATOM_DEF_STEREO_COUNT>
4

> <PUBCHEM_ATOM_UDEF_STEREO_COUNT>
8

> <PUBCHEM_BOND_DEF_STEREO_COUNT>
0

> <PUBCHEM_BOND_UDEF_STEREO_COUNT>
0

> <PUBCHEM_ISOTOPIC_ATOM_COUNT>
0

> <PUBCHEM_COMPONENT_COUNT>
1

> <PUBCHEM_CACTVS_TAUTO_COUNT>
-1

> <PUBCHEM_COORDINATE_TYPE>
1
5
255

> <PUBCHEM_BONDANNOTATIONS>
15  35  6
16  25  3
17  22  3
18  28  3
12  2  3
26  29  3
13  3  6
20  3  6
14  6  3
21  7  3
23  8  3
24  9  6

$$$$
