 
  -OEChem-10192104012D

 50 51  0     1  0  0  0  0  0999 V2000
    7.9282    0.7306    0.0000 O   0  0  0  0  0  0  0  0  0  0  0  0
    8.9282   -0.2694    0.0000 O   0  0  0  0  0  0  0  0  0  0  0  0
    7.1962   -0.2694    0.0000 O   0  0  0  0  0  0  0  0  0  0  0  0
   10.1883    1.9906    0.0000 O   0  0  0  0  0  0  0  0  0  0  0  0
    8.4282    3.2694    0.0000 O   0  0  0  0  0  0  0  0  0  0  0  0
    8.9282   -2.2694    0.0000 O   0  0  0  0  0  0  0  0  0  0  0  0
    7.1962   -3.2694    0.0000 O   0  0  0  0  0  0  0  0  0  0  0  0
    5.4641   -2.2694    0.0000 O   0  0  0  0  0  0  0  0  0  0  0  0
   10.6224    1.0907    0.0000 O   0  0  0  0  0  0  0  0  0  0  0  0
    6.4602    2.9688    0.0000 O   0  0  0  0  0  0  0  0  0  0  0  0
    4.5981   -0.7694    0.0000 O   0  0  0  0  0  0  0  0  0  0  0  0
    2.0000   -0.2694    0.0000 O   0  0  0  0  0  0  0  0  0  0  0  0
    8.9282    0.7306    0.0000 C   0  0  1  0  0  0  0  0  0  0  0  0
    9.2372    1.6816    0.0000 C   0  0  2  0  0  0  0  0  0  0  0  0
    8.4282    2.2694    0.0000 C   0  0  1  0  0  0  0  0  0  0  0  0
    7.6192    1.6816    0.0000 C   0  0  1  0  0  0  0  0  0  0  0  0
    8.0622   -0.7694    0.0000 C   0  0  1  0  0  0  0  0  0  0  0  0
    8.0622   -1.7694    0.0000 C   0  0  1  0  0  0  0  0  0  0  0  0
    7.1962   -2.2694    0.0000 C   0  0  2  0  0  0  0  0  0  0  0  0
    6.3301   -1.7694    0.0000 C   0  0  1  0  0  0  0  0  0  0  0  0
    6.3301   -0.7694    0.0000 C   0  0  1  0  0  0  0  0  0  0  0  0
    9.8793    0.4216    0.0000 C   0  0  0  0  0  0  0  0  0  0  0  0
    6.6681    1.9906    0.0000 C   0  0  0  0  0  0  0  0  0  0  0  0
    5.4641   -0.2694    0.0000 C   0  0  0  0  0  0  0  0  0  0  0  0
    3.7320   -0.2694    0.0000 C   0  0  0  0  0  0  0  0  0  0  0  0
    2.8660   -0.7694    0.0000 C   0  0  0  0  0  0  0  0  0  0  0  0
    9.6756    1.2432    0.0000 H   0  0  0  0  0  0  0  0  0  0  0  0
    8.9806    2.5509    0.0000 H   0  0  0  0  0  0  0  0  0  0  0  0
    7.1808    1.2432    0.0000 H   0  0  0  0  0  0  0  0  0  0  0  0
    8.0622   -0.1494    0.0000 H   0  0  0  0  0  0  0  0  0  0  0  0
    8.0622   -2.3894    0.0000 H   0  0  0  0  0  0  0  0  0  0  0  0
    6.6592   -2.5794    0.0000 H   0  0  0  0  0  0  0  0  0  0  0  0
    6.3301   -2.3894    0.0000 H   0  0  0  0  0  0  0  0  0  0  0  0
    6.3301   -0.1494    0.0000 H   0  0  0  0  0  0  0  0  0  0  0  0
    9.5882   -0.1259    0.0000 H   0  0  0  0  0  0  0  0  0  0  0  0
   10.3678    0.0399    0.0000 H   0  0  0  0  0  0  0  0  0  0  0  0
    6.0485    1.9690    0.0000 H   0  0  0  0  0  0  0  0  0  0  0  0
    6.5818    1.3767    0.0000 H   0  0  0  0  0  0  0  0  0  0  0  0
    5.8626    0.2055    0.0000 H   0  0  0  0  0  0  0  0  0  0  0  0
    5.0656    0.2055    0.0000 H   0  0  0  0  0  0  0  0  0  0  0  0
   10.3172    2.5971    0.0000 H   0  0  0  0  0  0  0  0  0  0  0  0
    8.9651    3.5794    0.0000 H   0  0  0  0  0  0  0  0  0  0  0  0
    8.9282   -2.8894    0.0000 H   0  0  0  0  0  0  0  0  0  0  0  0
    6.6592   -3.5794    0.0000 H   0  0  0  0  0  0  0  0  0  0  0  0
    5.4641   -2.8894    0.0000 H   0  0  0  0  0  0  0  0  0  0  0  0
   11.2121    0.8991    0.0000 H   0  0  0  0  0  0  0  0  0  0  0  0
    5.8706    3.1604    0.0000 H   0  0  0  0  0  0  0  0  0  0  0  0
    4.1306    0.2055    0.0000 H   0  0  0  0  0  0  0  0  0  0  0  0
    3.3335    0.2055    0.0000 H   0  0  0  0  0  0  0  0  0  0  0  0
    2.8660   -1.3894    0.0000 H   0  0  0  0  0  0  0  0  0  0  0  0
  1 13  1  0  0  0  0
  1 16  1  0  0  0  0
 13  2  1  6  0  0  0
 17  2  1  6  0  0  0
  3 17  1  0  0  0  0
  3 21  1  0  0  0  0
 14  4  1  6  0  0  0
  4 41  1  0  0  0  0
 15  5  1  1  0  0  0
  5 42  1  0  0  0  0
 18  6  1  6  0  0  0
  6 43  1  0  0  0  0
 19  7  1  1  0  0  0
  7 44  1  0  0  0  0
 20  8  1  6  0  0  0
  8 45  1  0  0  0  0
  9 22  1  0  0  0  0
  9 46  1  0  0  0  0
 10 23  1  0  0  0  0
 10 47  1  0  0  0  0
 11 24  1  0  0  0  0
 11 25  1  0  0  0  0
 12 26  2  0  0  0  0
 13 14  1  0  0  0  0
 13 22  1  0  0  0  0
 14 15  1  0  0  0  0
 14 27  1  0  0  0  0
 15 16  1  0  0  0  0
 15 28  1  0  0  0  0
 16 23  1  6  0  0  0
 16 29  1  0  0  0  0
 17 18  1  0  0  0  0
 17 30  1  0  0  0  0
 18 19  1  0  0  0  0
 18 31  1  0  0  0  0
 19 20  1  0  0  0  0
 19 32  1  0  0  0  0
 20 21  1  0  0  0  0
 20 33  1  0  0  0  0
 21 24  1  1  0  0  0
 21 34  1  0  0  0  0
 22 35  1  0  0  0  0
 22 36  1  0  0  0  0
 23 37  1  0  0  0  0
 23 38  1  0  0  0  0
 24 39  1  0  0  0  0
 24 40  1  0  0  0  0
 25 26  1  0  0  0  0
 25 48  1  0  0  0  0
 25 49  1  0  0  0  0
 26 50  1  0  0  0  0
M  END
> <PUBCHEM_COMPOUND_CID>
87319011

> <PUBCHEM_COMPOUND_CANONICALIZED>
1

> <PUBCHEM_CACTVS_COMPLEXITY>
463

> <PUBCHEM_CACTVS_HBOND_ACCEPTOR>
12

> <PUBCHEM_CACTVS_HBOND_DONOR>
7

> <PUBCHEM_CACTVS_ROTATABLE_BOND>
8

> <PUBCHEM_CACTVS_SUBSKEYS>
AAADceBwPAAAAAAAAAAAAAAAAAAAASAAAAAkAAAAAAAAAAAAAAAAGgAACAAACBSwgAMACAAABgAIAAgQgAIAAAAAAAAAAABAAAAREAIAAAQiQAAFAAAHAAHAYAwAAAAAAAAAAAAAAAAAAAAAAAAAAAAAAA==

> <PUBCHEM_IUPAC_OPENEYE_NAME>
2-[[(2R,3S,4S,5R,6R)-6-[(2S,3S,4S,5R)-3,4-dihydroxy-2,5-bis(hydroxymethyl)tetrahydrofuran-2-yl]oxy-3,4,5-trihydroxy-tetrahydropyran-2-yl]methoxy]acetaldehyde

> <PUBCHEM_IUPAC_CAS_NAME>
2-[[(2R,3S,4S,5R,6R)-6-[[(2S,3S,4S,5R)-3,4-dihydroxy-2,5-bis(hydroxymethyl)-2-oxolanyl]oxy]-3,4,5-trihydroxy-2-oxanyl]methoxy]acetaldehyde

> <PUBCHEM_IUPAC_NAME_MARKUP>
2-[[(2<I>R</I>,3<I>S</I>,4<I>S</I>,5<I>R</I>,6<I>R</I>)-6-[(2<I>S</I>,3<I>S</I>,4<I>S</I>,5<I>R</I>)-3,4-dihydroxy-2,5-bis(hydroxymethyl)oxolan-2-yl]oxy-3,4,5-trihydroxyoxan-2-yl]methoxy]acetaldehyde

> <PUBCHEM_IUPAC_NAME>
2-[[(2R,3S,4S,5R,6R)-6-[(2S,3S,4S,5R)-3,4-dihydroxy-2,5-bis(hydroxymethyl)oxolan-2-yl]oxy-3,4,5-trihydroxyoxan-2-yl]methoxy]acetaldehyde

> <PUBCHEM_IUPAC_SYSTEMATIC_NAME>
2-[[(2R,3S,4S,5R,6R)-6-[(2S,3S,4S,5R)-2,5-bis(hydroxymethyl)-3,4-bis(oxidanyl)oxolan-2-yl]oxy-3,4,5-tris(oxidanyl)oxan-2-yl]methoxy]ethanal

> <PUBCHEM_IUPAC_TRADITIONAL_NAME>
2-[[(2R,3S,4S,5R,6R)-6-[(2S,3S,4S,5R)-3,4-dihydroxy-2,5-dimethylol-tetrahydrofuran-2-yl]oxy-3,4,5-trihydroxy-tetrahydropyran-2-yl]methoxy]acetaldehyde

> <PUBCHEM_IUPAC_INCHI>
InChI=1S/C14H24O12/c15-1-2-23-4-7-8(18)10(20)11(21)13(24-7)26-14(5-17)12(22)9(19)6(3-16)25-14/h1,6-13,16-22H,2-5H2/t6-,7-,8-,9-,10+,11-,12+,13-,14+/m1/s1

> <PUBCHEM_IUPAC_INCHIKEY>
HHWHVFXCNYAATJ-YYAHPEQVSA-N

> <PUBCHEM_XLOGP3>
-4.2

> <PUBCHEM_EXACT_MASS>
384.12677620

> <PUBCHEM_MOLECULAR_FORMULA>
C14H24O12

> <PUBCHEM_MOLECULAR_WEIGHT>
384.33

> <PUBCHEM_OPENEYE_CAN_SMILES>
C(C=O)OCC1C(C(C(C(O1)OC2(C(C(C(O2)CO)O)O)CO)O)O)O

> <PUBCHEM_OPENEYE_ISO_SMILES>
C(C=O)OC[C@@H]1[C@H]([C@@H]([C@H]([C@H](O1)O[C@]2([C@H]([C@@H]([C@H](O2)CO)O)O)CO)O)O)O

> <PUBCHEM_CACTVS_TPSA>
196

> <PUBCHEM_MONOISOTOPIC_WEIGHT>
384.12677620

> <PUBCHEM_TOTAL_CHARGE>
0

> <PUBCHEM_HEAVY_ATOM_COUNT>
26

> <PUBCHEM_ATOM_DEF_STEREO_COUNT>
9

> <PUBCHEM_ATOM_UDEF_STEREO_COUNT>
0

> <PUBCHEM_BOND_DEF_STEREO_COUNT>
0

> <PUBCHEM_BOND_UDEF_STEREO_COUNT>
0

> <PUBCHEM_ISOTOPIC_ATOM_COUNT>
0

> <PUBCHEM_COMPONENT_COUNT>
1

> <PUBCHEM_CACTVS_TAUTO_COUNT>
-1

> <PUBCHEM_COORDINATE_TYPE>
1
5
255

> <PUBCHEM_BONDANNOTATIONS>
16  23  6
13  2  6
17  2  6
21  24  5
14  4  6
15  5  5
18  6  6
19  7  5
20  8  6

$$$$
