 
  -OEChem-10192104042D

 29 28  0     1  0  0  0  0  0999 V2000
    6.0010    0.1550    0.0000 O   0  0  0  0  0  0  0  0  0  0  0  0
    4.2690   -1.8450    0.0000 O   0  0  0  0  0  0  0  0  0  0  0  0
    7.7331   -1.8450    0.0000 O   0  0  0  0  0  0  0  0  0  0  0  0
    2.5369    2.1550    0.0000 O   0  0  0  0  0  0  0  0  0  0  0  0
    9.4651    2.1550    0.0000 O   0  0  0  0  0  0  0  0  0  0  0  0
    5.1350   -0.3450    0.0000 C   0  0  3  0  0  0  0  0  0  0  0  0
    6.8671   -0.3450    0.0000 C   0  0  3  0  0  0  0  0  0  0  0  0
    5.1350   -1.3450    0.0000 C   0  0  0  0  0  0  0  0  0  0  0  0
    6.8671   -1.3450    0.0000 C   0  0  0  0  0  0  0  0  0  0  0  0
    4.2690    0.1550    0.0000 C   0  0  0  0  0  0  0  0  0  0  0  0
    7.7331    0.1550    0.0000 C   0  0  0  0  0  0  0  0  0  0  0  0
    3.4030    0.6550    0.0000 C   0  0  0  0  0  0  0  0  0  0  0  0
    8.5991    0.6550    0.0000 C   0  0  0  0  0  0  0  0  0  0  0  0
    2.5369    1.1550    0.0000 C   0  0  0  0  0  0  0  0  0  0  0  0
    9.4651    1.1550    0.0000 C   0  0  0  0  0  0  0  0  0  0  0  0
    5.1350    0.2750    0.0000 H   0  0  0  0  0  0  0  0  0  0  0  0
    6.3301   -0.6550    0.0000 H   0  0  0  0  0  0  0  0  0  0  0  0
    5.3471   -1.9276    0.0000 H   0  0  0  0  0  0  0  0  0  0  0  0
    5.7456   -1.2373    0.0000 H   0  0  0  0  0  0  0  0  0  0  0  0
    6.2565   -1.2373    0.0000 H   0  0  0  0  0  0  0  0  0  0  0  0
    6.6550   -1.9276    0.0000 H   0  0  0  0  0  0  0  0  0  0  0  0
    4.2690   -2.4650    0.0000 H   0  0  0  0  0  0  0  0  0  0  0  0
    7.7331   -2.4650    0.0000 H   0  0  0  0  0  0  0  0  0  0  0  0
    1.9264    1.2627    0.0000 H   0  0  0  0  0  0  0  0  0  0  0  0
    2.3249    0.5724    0.0000 H   0  0  0  0  0  0  0  0  0  0  0  0
    9.6772    0.5724    0.0000 H   0  0  0  0  0  0  0  0  0  0  0  0
   10.0757    1.2627    0.0000 H   0  0  0  0  0  0  0  0  0  0  0  0
    2.0000    2.4650    0.0000 H   0  0  0  0  0  0  0  0  0  0  0  0
   10.0021    2.4650    0.0000 H   0  0  0  0  0  0  0  0  0  0  0  0
  1  6  1  0  0  0  0
  1  7  1  0  0  0  0
  2  8  1  0  0  0  0
  2 22  1  0  0  0  0
  3  9  1  0  0  0  0
  3 23  1  0  0  0  0
  4 14  1  0  0  0  0
  4 28  1  0  0  0  0
  5 15  1  0  0  0  0
  5 29  1  0  0  0  0
  6  8  1  0  0  0  0
  6 10  1  0  0  0  0
  6 16  1  0  0  0  0
  7  9  1  0  0  0  0
  7 11  1  0  0  0  0
  7 17  1  0  0  0  0
  8 18  1  0  0  0  0
  8 19  1  0  0  0  0
  9 20  1  0  0  0  0
  9 21  1  0  0  0  0
 10 12  3  0  0  0  0
 11 13  3  0  0  0  0
 12 14  1  0  0  0  0
 13 15  1  0  0  0  0
 14 24  1  0  0  0  0
 14 25  1  0  0  0  0
 15 26  1  0  0  0  0
 15 27  1  0  0  0  0
M  END
> <PUBCHEM_COMPOUND_CID>
87736634

> <PUBCHEM_COMPOUND_CANONICALIZED>
1

> <PUBCHEM_CACTVS_COMPLEXITY>
256

> <PUBCHEM_CACTVS_HBOND_ACCEPTOR>
5

> <PUBCHEM_CACTVS_HBOND_DONOR>
4

> <PUBCHEM_CACTVS_ROTATABLE_BOND>
4

> <PUBCHEM_CACTVS_SUBSKEYS>
AAADccBwOAAAAAAAAAAAAAAAAAAAAAAAAAAAAAAAAAAAAAAAAAAAGgAACAAACBSggAIAAAAABgBAEAAAAAgAAAAAAAAAAAAAAAABEAAAAAACQAAAAAADAAAAAAAAAAAAAAAAAAAAAAAAAAAAAAAAAAAAAA==

> <PUBCHEM_IUPAC_OPENEYE_NAME>
4-[4-hydroxy-1-(hydroxymethyl)but-2-ynoxy]pent-2-yne-1,5-diol

> <PUBCHEM_IUPAC_CAS_NAME>
4-(1,5-dihydroxypent-3-yn-2-yloxy)-2-pentyne-1,5-diol

> <PUBCHEM_IUPAC_NAME_MARKUP>
4-(1,5-dihydroxypent-3-yn-2-yloxy)pent-2-yne-1,5-diol

> <PUBCHEM_IUPAC_NAME>
4-(1,5-dihydroxypent-3-yn-2-yloxy)pent-2-yne-1,5-diol

> <PUBCHEM_IUPAC_SYSTEMATIC_NAME>
4-[1,5-bis(oxidanyl)pent-3-yn-2-yloxy]pent-2-yne-1,5-diol

> <PUBCHEM_IUPAC_TRADITIONAL_NAME>
4-(4-hydroxy-1-methylol-but-2-ynoxy)pent-2-yne-1,5-diol

> <PUBCHEM_IUPAC_INCHI>
InChI=1S/C10H14O5/c11-5-1-3-9(7-13)15-10(8-14)4-2-6-12/h9-14H,5-8H2

> <PUBCHEM_IUPAC_INCHIKEY>
OCGLWEVBXQCFIW-UHFFFAOYSA-N

> <PUBCHEM_XLOGP3_AA>
-2.5

> <PUBCHEM_EXACT_MASS>
214.08412354

> <PUBCHEM_MOLECULAR_FORMULA>
C10H14O5

> <PUBCHEM_MOLECULAR_WEIGHT>
214.21

> <PUBCHEM_OPENEYE_CAN_SMILES>
C(C#CC(CO)OC(CO)C#CCO)O

> <PUBCHEM_OPENEYE_ISO_SMILES>
C(C#CC(CO)OC(CO)C#CCO)O

> <PUBCHEM_CACTVS_TPSA>
90.2

> <PUBCHEM_MONOISOTOPIC_WEIGHT>
214.08412354

> <PUBCHEM_TOTAL_CHARGE>
0

> <PUBCHEM_HEAVY_ATOM_COUNT>
15

> <PUBCHEM_ATOM_DEF_STEREO_COUNT>
0

> <PUBCHEM_ATOM_UDEF_STEREO_COUNT>
2

> <PUBCHEM_BOND_DEF_STEREO_COUNT>
0

> <PUBCHEM_BOND_UDEF_STEREO_COUNT>
0

> <PUBCHEM_ISOTOPIC_ATOM_COUNT>
0

> <PUBCHEM_COMPONENT_COUNT>
1

> <PUBCHEM_CACTVS_TAUTO_COUNT>
-1

> <PUBCHEM_COORDINATE_TYPE>
1
5
255

> <PUBCHEM_BONDANNOTATIONS>
6  8  3
7  9  3

$$$$
