 
  -OEChem-10192103492D

 58 62  0     1  0  0  0  0  0999 V2000
    7.3435    0.6702    0.0000 O   0  0  0  0  0  0  0  0  0  0  0  0
    6.0873    2.9324    0.0000 O   0  0  0  0  0  0  0  0  0  0  0  0
    4.8055    1.1746    0.0000 O   0  0  0  0  0  0  0  0  0  0  0  0
   15.3552   -0.0153    0.0000 O   0  0  0  0  0  0  0  0  0  0  0  0
    4.2690   -3.3924    0.0000 O   0  0  0  0  0  0  0  0  0  0  0  0
    6.0812   -0.5877    0.0000 N   0  0  0  0  0  0  0  0  0  0  0  0
    9.0681    1.8482    0.0000 N   0  0  0  0  0  0  0  0  0  0  0  0
    6.0812   -2.1972    0.0000 N   0  0  0  0  0  0  0  0  0  0  0  0
    4.2690   -0.3925    0.0000 N   0  0  0  0  0  0  0  0  0  0  0  0
   13.5295    0.8014    0.0000 N   0  0  0  0  0  0  0  0  0  0  0  0
    3.4030   -1.8924    0.0000 N   0  0  0  0  0  0  0  0  0  0  0  0
   12.5138    2.2044    0.0000 N   0  0  0  0  0  0  0  0  0  0  0  0
   11.8066    0.6233    0.0000 N   0  0  0  0  0  0  0  0  0  0  0  0
    2.5369   -0.3925    0.0000 N   0  0  0  0  0  0  0  0  0  0  0  0
    6.3947    1.9808    0.0000 C   0  0  2  0  0  0  0  0  0  0  0  0
    7.3452    1.6702    0.0000 C   0  0  1  0  0  0  0  0  0  0  0  0
    5.8055    1.1728    0.0000 C   0  0  2  0  0  0  0  0  0  0  0  0
    6.3919    0.3628    0.0000 C   0  0  1  0  0  0  0  0  0  0  0  0
    8.1552    2.2566    0.0000 C   0  0  0  0  0  0  0  0  0  0  0  0
    5.1350   -0.8925    0.0000 C   0  0  0  0  0  0  0  0  0  0  0  0
    6.6648   -1.3924    0.0000 C   0  0  0  0  0  0  0  0  0  0  0  0
    5.1350   -1.8924    0.0000 C   0  0  0  0  0  0  0  0  0  0  0  0
    9.8781    2.4346    0.0000 C   0  0  0  0  0  0  0  0  0  0  0  0
   10.7910    2.0263    0.0000 C   0  0  0  0  0  0  0  0  0  0  0  0
    4.2690   -2.3925    0.0000 C   0  0  0  0  0  0  0  0  0  0  0  0
    3.4030   -0.8925    0.0000 C   0  0  0  0  0  0  0  0  0  0  0  0
   14.3395    1.3877    0.0000 C   0  0  0  0  0  0  0  0  0  0  0  0
   13.6323   -0.1933    0.0000 C   0  0  0  0  0  0  0  0  0  0  0  0
   12.6166    1.2097    0.0000 C   0  0  0  0  0  0  0  0  0  0  0  0
   11.6010    2.6127    0.0000 C   0  0  0  0  0  0  0  0  0  0  0  0
   10.8938    1.0316    0.0000 C   0  0  0  0  0  0  0  0  0  0  0  0
   15.2524    0.9794    0.0000 C   0  0  0  0  0  0  0  0  0  0  0  0
   14.5451   -0.6017    0.0000 C   0  0  0  0  0  0  0  0  0  0  0  0
    5.7825    2.0789    0.0000 H   0  0  0  0  0  0  0  0  0  0  0  0
    7.8972    1.3877    0.0000 H   0  0  0  0  0  0  0  0  0  0  0  0
    5.5250    1.7257    0.0000 H   0  0  0  0  0  0  0  0  0  0  0  0
    5.7794    0.2669    0.0000 H   0  0  0  0  0  0  0  0  0  0  0  0
    8.5028    2.7700    0.0000 H   0  0  0  0  0  0  0  0  0  0  0  0
    7.7100    2.6880    0.0000 H   0  0  0  0  0  0  0  0  0  0  0  0
    6.5030    3.3924    0.0000 H   0  0  0  0  0  0  0  0  0  0  0  0
    9.1318    1.2315    0.0000 H   0  0  0  0  0  0  0  0  0  0  0  0
    4.4964    1.7120    0.0000 H   0  0  0  0  0  0  0  0  0  0  0  0
    7.2848   -1.3924    0.0000 H   0  0  0  0  0  0  0  0  0  0  0  0
   10.2257    2.9480    0.0000 H   0  0  0  0  0  0  0  0  0  0  0  0
    9.4329    2.8661    0.0000 H   0  0  0  0  0  0  0  0  0  0  0  0
   14.6871    1.9011    0.0000 H   0  0  0  0  0  0  0  0  0  0  0  0
   13.8943    1.8192    0.0000 H   0  0  0  0  0  0  0  0  0  0  0  0
   13.0139   -0.1490    0.0000 H   0  0  0  0  0  0  0  0  0  0  0  0
   13.4813   -0.7947    0.0000 H   0  0  0  0  0  0  0  0  0  0  0  0
    2.8660   -2.2024    0.0000 H   0  0  0  0  0  0  0  0  0  0  0  0
   15.8708    0.9351    0.0000 H   0  0  0  0  0  0  0  0  0  0  0  0
   15.4034    1.5807    0.0000 H   0  0  0  0  0  0  0  0  0  0  0  0
   14.1975   -1.1151    0.0000 H   0  0  0  0  0  0  0  0  0  0  0  0
   14.9904   -1.0331    0.0000 H   0  0  0  0  0  0  0  0  0  0  0  0
   11.5373    3.2294    0.0000 H   0  0  0  0  0  0  0  0  0  0  0  0
   10.3915    0.6680    0.0000 H   0  0  0  0  0  0  0  0  0  0  0  0
    2.0000   -0.7025    0.0000 H   0  0  0  0  0  0  0  0  0  0  0  0
    2.5369    0.2275    0.0000 H   0  0  0  0  0  0  0  0  0  0  0  0
  1 16  1  0  0  0  0
  1 18  1  0  0  0  0
 15  2  1  6  0  0  0
  2 40  1  0  0  0  0
 17  3  1  6  0  0  0
  3 42  1  0  0  0  0
  4 32  1  0  0  0  0
  4 33  1  0  0  0  0
  5 25  2  0  0  0  0
 18  6  1  1  0  0  0
  6 20  1  0  0  0  0
  6 21  1  0  0  0  0
  7 19  1  0  0  0  0
  7 23  1  0  0  0  0
  7 41  1  0  0  0  0
  8 21  2  0  0  0  0
  8 22  1  0  0  0  0
  9 20  1  0  0  0  0
  9 26  2  0  0  0  0
 10 27  1  0  0  0  0
 10 28  1  0  0  0  0
 10 29  1  0  0  0  0
 11 25  1  0  0  0  0
 11 26  1  0  0  0  0
 11 50  1  0  0  0  0
 12 29  2  0  0  0  0
 12 30  1  0  0  0  0
 13 29  1  0  0  0  0
 13 31  2  0  0  0  0
 14 26  1  0  0  0  0
 14 57  1  0  0  0  0
 14 58  1  0  0  0  0
 15 16  1  0  0  0  0
 15 17  1  0  0  0  0
 15 34  1  0  0  0  0
 16 19  1  1  0  0  0
 16 35  1  0  0  0  0
 17 18  1  0  0  0  0
 17 36  1  0  0  0  0
 18 37  1  0  0  0  0
 19 38  1  0  0  0  0
 19 39  1  0  0  0  0
 20 22  2  0  0  0  0
 21 43  1  0  0  0  0
 22 25  1  0  0  0  0
 23 24  1  0  0  0  0
 23 44  1  0  0  0  0
 23 45  1  0  0  0  0
 24 30  2  0  0  0  0
 24 31  1  0  0  0  0
 27 32  1  0  0  0  0
 27 46  1  0  0  0  0
 27 47  1  0  0  0  0
 28 33  1  0  0  0  0
 28 48  1  0  0  0  0
 28 49  1  0  0  0  0
 30 55  1  0  0  0  0
 31 56  1  0  0  0  0
 32 51  1  0  0  0  0
 32 52  1  0  0  0  0
 33 53  1  0  0  0  0
 33 54  1  0  0  0  0
M  END
> <PUBCHEM_COMPOUND_CID>
136026604

> <PUBCHEM_COMPOUND_CANONICALIZED>
1

> <PUBCHEM_CACTVS_COMPLEXITY>
730

> <PUBCHEM_CACTVS_HBOND_ACCEPTOR>
11

> <PUBCHEM_CACTVS_HBOND_DONOR>
5

> <PUBCHEM_CACTVS_ROTATABLE_BOND>
6

> <PUBCHEM_CACTVS_SUBSKEYS>
AAADceB7+AAAAAAAAAAAAAAAAAAAAWJAAAAsWIAAAAAAAEAB4AAAHgAQCAAADBzhngYtsJfMFgCoAxd3dACAgC0XEKABUKGoVFCDWIpAyWAfRIgPEQLTAGCwEAIAAAAAAAAAAAAAAAAAAAAAAAAAAAAAAA==

> <PUBCHEM_IUPAC_OPENEYE_NAME>
2-amino-9-[(2R,3R,4S,5R)-3,4-dihydroxy-5-[[(2-morpholinopyrimidin-5-yl)methylamino]methyl]tetrahydrofuran-2-yl]-1H-purin-6-one

> <PUBCHEM_IUPAC_CAS_NAME>
2-amino-9-[(2R,3R,4S,5R)-3,4-dihydroxy-5-[[[2-(4-morpholinyl)-5-pyrimidinyl]methylamino]methyl]-2-oxolanyl]-1H-purin-6-one

> <PUBCHEM_IUPAC_NAME_MARKUP>
2-amino-9-[(2<I>R</I>,3<I>R</I>,4<I>S</I>,5<I>R</I>)-3,4-dihydroxy-5-[[(2-morpholin-4-ylpyrimidin-5-yl)methylamino]methyl]oxolan-2-yl]-1<I>H</I>-purin-6-one

> <PUBCHEM_IUPAC_NAME>
2-amino-9-[(2R,3R,4S,5R)-3,4-dihydroxy-5-[[(2-morpholin-4-ylpyrimidin-5-yl)methylamino]methyl]oxolan-2-yl]-1H-purin-6-one

> <PUBCHEM_IUPAC_SYSTEMATIC_NAME>
2-azanyl-9-[(2R,3R,4S,5R)-5-[[(2-morpholin-4-ylpyrimidin-5-yl)methylamino]methyl]-3,4-bis(oxidanyl)oxolan-2-yl]-1H-purin-6-one

> <PUBCHEM_IUPAC_TRADITIONAL_NAME>
2-amino-9-[(2R,3R,4S,5R)-3,4-dihydroxy-5-[[(2-morpholinopyrimidin-5-yl)methylamino]methyl]tetrahydrofuran-2-yl]hypoxanthine

> <PUBCHEM_IUPAC_INCHI>
InChI=1S/C19H25N9O5/c20-18-25-15-12(16(31)26-18)24-9-28(15)17-14(30)13(29)11(33-17)8-21-5-10-6-22-19(23-7-10)27-1-3-32-4-2-27/h6-7,9,11,13-14,17,21,29-30H,1-5,8H2,(H3,20,25,26,31)/t11-,13-,14-,17-/m1/s1

> <PUBCHEM_IUPAC_INCHIKEY>
OAQYECYWXGDFGV-LSCFUAHRSA-N

> <PUBCHEM_XLOGP3>
-1.8

> <PUBCHEM_EXACT_MASS>
459.19786493

> <PUBCHEM_MOLECULAR_FORMULA>
C19H25N9O5

> <PUBCHEM_MOLECULAR_WEIGHT>
459.5

> <PUBCHEM_OPENEYE_CAN_SMILES>
C1COCCN1C2=NC=C(C=N2)CNCC3C(C(C(O3)N4C=NC5=C4N=C(NC5=O)N)O)O

> <PUBCHEM_OPENEYE_ISO_SMILES>
C1COCCN1C2=NC=C(C=N2)CNC[C@@H]3[C@H]([C@H]([C@@H](O3)N4C=NC5=C4N=C(NC5=O)N)O)O

> <PUBCHEM_CACTVS_TPSA>
185

> <PUBCHEM_MONOISOTOPIC_WEIGHT>
459.19786493

> <PUBCHEM_TOTAL_CHARGE>
0

> <PUBCHEM_HEAVY_ATOM_COUNT>
33

> <PUBCHEM_ATOM_DEF_STEREO_COUNT>
4

> <PUBCHEM_ATOM_UDEF_STEREO_COUNT>
0

> <PUBCHEM_BOND_DEF_STEREO_COUNT>
0

> <PUBCHEM_BOND_UDEF_STEREO_COUNT>
0

> <PUBCHEM_ISOTOPIC_ATOM_COUNT>
0

> <PUBCHEM_COMPONENT_COUNT>
1

> <PUBCHEM_CACTVS_TAUTO_COUNT>
-1

> <PUBCHEM_COORDINATE_TYPE>
1
5
255

> <PUBCHEM_BONDANNOTATIONS>
11  25  8
11  26  8
12  29  8
12  30  8
13  29  8
13  31  8
16  19  5
15  2  6
20  22  8
22  25  8
24  30  8
24  31  8
17  3  6
18  6  5
6  20  8
6  21  8
8  21  8
8  22  8
9  20  8
9  26  8

$$$$
