 
  -OEChem-10192103432D

 52 53  0     1  0  0  0  0  0999 V2000
    8.4750   -2.3126    0.0000 P   0  0  3  0  0  0  0  0  0  0  0  0
    3.7226   -3.1217    0.0000 P   0  0  0  0  0  0  0  0  0  0  0  0
    5.5836   -0.6571    0.0000 O   0  0  0  0  0  0  0  0  0  0  0  0
    7.4804   -2.4172    0.0000 O   0  0  0  0  0  0  0  0  0  0  0  0
    9.4695   -2.2081    0.0000 O   0  0  0  0  0  0  0  0  0  0  0  0
    8.3704   -1.3181    0.0000 O   0  0  0  0  0  0  0  0  0  0  0  0
    8.1247    0.9307    0.0000 O   0  0  0  0  0  0  0  0  0  0  0  0
    3.1348   -3.9307    0.0000 O   0  0  0  0  0  0  0  0  0  0  0  0
    2.9136   -2.5339    0.0000 O   0  0  0  0  0  0  0  0  0  0  0  0
    6.3926    3.9307    0.0000 O   0  0  0  0  0  0  0  0  0  0  0  0
    4.5316   -3.7094    0.0000 O   0  0  0  0  0  0  0  0  0  0  0  0
    6.3926    0.9307    0.0000 N   0  0  0  0  0  0  0  0  0  0  0  0
    7.2587    2.4307    0.0000 N   0  0  0  0  0  0  0  0  0  0  0  0
    6.8926   -1.6082    0.0000 C   0  0  3  0  0  0  0  0  0  0  0  0
    7.2017   -0.6571    0.0000 C   0  0  0  0  0  0  0  0  0  0  0  0
    6.3926   -0.0693    0.0000 C   0  0  3  0  0  0  0  0  0  0  0  0
    5.8926   -1.6082    0.0000 C   0  0  3  0  0  0  0  0  0  0  0  0
    5.3049   -2.4172    0.0000 C   0  0  0  0  0  0  0  0  0  0  0  0
    5.5266    1.4307    0.0000 C   0  0  0  0  0  0  0  0  0  0  0  0
    7.2587    1.4307    0.0000 C   0  0  0  0  0  0  0  0  0  0  0  0
    4.3104   -2.3126    0.0000 C   0  0  0  0  0  0  0  0  0  0  0  0
    5.5266    2.4307    0.0000 C   0  0  0  0  0  0  0  0  0  0  0  0
    8.5795   -3.3072    0.0000 C   0  0  0  0  0  0  0  0  0  0  0  0
    6.3926    2.9307    0.0000 C   0  0  0  0  0  0  0  0  0  0  0  0
    4.6606    2.9307    0.0000 C   0  0  0  0  0  0  0  0  0  0  0  0
   10.0573   -3.0171    0.0000 C   0  0  0  0  0  0  0  0  0  0  0  0
    2.1403   -3.8262    0.0000 C   0  0  0  0  0  0  0  0  0  0  0  0
    2.0000   -2.9406    0.0000 C   0  0  0  0  0  0  0  0  0  0  0  0
    6.6112   -2.1606    0.0000 H   0  0  0  0  0  0  0  0  0  0  0  0
    7.7681   -0.9093    0.0000 H   0  0  0  0  0  0  0  0  0  0  0  0
    7.5117   -0.1202    0.0000 H   0  0  0  0  0  0  0  0  0  0  0  0
    6.9451    0.2122    0.0000 H   0  0  0  0  0  0  0  0  0  0  0  0
    5.2803   -1.5112    0.0000 H   0  0  0  0  0  0  0  0  0  0  0  0
    5.5570   -2.9836    0.0000 H   0  0  0  0  0  0  0  0  0  0  0  0
    4.9897    1.1207    0.0000 H   0  0  0  0  0  0  0  0  0  0  0  0
    4.0582   -1.7462    0.0000 H   0  0  0  0  0  0  0  0  0  0  0  0
    7.7956    2.7407    0.0000 H   0  0  0  0  0  0  0  0  0  0  0  0
    7.9629   -3.3720    0.0000 H   0  0  0  0  0  0  0  0  0  0  0  0
    8.6443   -3.9238    0.0000 H   0  0  0  0  0  0  0  0  0  0  0  0
    9.1961   -3.2424    0.0000 H   0  0  0  0  0  0  0  0  0  0  0  0
    4.9706    3.4676    0.0000 H   0  0  0  0  0  0  0  0  0  0  0  0
    4.1237    3.2407    0.0000 H   0  0  0  0  0  0  0  0  0  0  0  0
    4.3506    2.3938    0.0000 H   0  0  0  0  0  0  0  0  0  0  0  0
    9.5557   -3.3816    0.0000 H   0  0  0  0  0  0  0  0  0  0  0  0
   10.4217   -3.5187    0.0000 H   0  0  0  0  0  0  0  0  0  0  0  0
   10.5589   -2.6527    0.0000 H   0  0  0  0  0  0  0  0  0  0  0  0
    2.2051   -3.2096    0.0000 H   0  0  0  0  0  0  0  0  0  0  0  0
    1.5236   -3.7614    0.0000 H   0  0  0  0  0  0  0  0  0  0  0  0
    2.0754   -4.4428    0.0000 H   0  0  0  0  0  0  0  0  0  0  0  0
    1.7478   -2.3742    0.0000 H   0  0  0  0  0  0  0  0  0  0  0  0
    1.4336   -3.1928    0.0000 H   0  0  0  0  0  0  0  0  0  0  0  0
    2.2522   -3.5070    0.0000 H   0  0  0  0  0  0  0  0  0  0  0  0
  1  4  1  0  0  0  0
  1  5  1  0  0  0  0
  1  6  2  0  0  0  0
  1 23  1  0  0  0  0
  2  8  1  0  0  0  0
  2  9  1  0  0  0  0
  2 11  2  0  0  0  0
  2 21  1  0  0  0  0
  3 16  1  0  0  0  0
  3 17  1  0  0  0  0
  4 14  1  0  0  0  0
  5 26  1  0  0  0  0
  7 20  2  0  0  0  0
  8 27  1  0  0  0  0
  9 28  1  0  0  0  0
 10 24  2  0  0  0  0
 12 16  1  0  0  0  0
 12 19  1  0  0  0  0
 12 20  1  0  0  0  0
 13 20  1  0  0  0  0
 13 24  1  0  0  0  0
 13 37  1  0  0  0  0
 14 15  1  0  0  0  0
 14 17  1  0  0  0  0
 14 29  1  0  0  0  0
 15 16  1  0  0  0  0
 15 30  1  0  0  0  0
 15 31  1  0  0  0  0
 16 32  1  0  0  0  0
 17 18  1  0  0  0  0
 17 33  1  0  0  0  0
 18 21  2  0  0  0  0
 18 34  1  0  0  0  0
 19 22  2  0  0  0  0
 19 35  1  0  0  0  0
 21 36  1  0  0  0  0
 22 24  1  0  0  0  0
 22 25  1  0  0  0  0
 23 38  1  0  0  0  0
 23 39  1  0  0  0  0
 23 40  1  0  0  0  0
 25 41  1  0  0  0  0
 25 42  1  0  0  0  0
 25 43  1  0  0  0  0
 26 44  1  0  0  0  0
 26 45  1  0  0  0  0
 26 46  1  0  0  0  0
 27 47  1  0  0  0  0
 27 48  1  0  0  0  0
 27 49  1  0  0  0  0
 28 50  1  0  0  0  0
 28 51  1  0  0  0  0
 28 52  1  0  0  0  0
M  END
> <PUBCHEM_COMPOUND_CID>
130340957

> <PUBCHEM_COMPOUND_CANONICALIZED>
1

> <PUBCHEM_CACTVS_COMPLEXITY>
774

> <PUBCHEM_CACTVS_HBOND_ACCEPTOR>
9

> <PUBCHEM_CACTVS_HBOND_DONOR>
1

> <PUBCHEM_CACTVS_ROTATABLE_BOND>
8

> <PUBCHEM_CACTVS_SUBSKEYS>
AAADceBzPAMAAAAAAAAAAAAAAAAAASAAAAAgAAAAAAAAAAAAAAAAHggQACAADBTpgAYDAAPABRCIQiFWUICAAAAgAAAIAAEIAEiBBAIAoQAOAAAPxyICIMCwAAAAAAAAAAAAAAAAAAAAAAAAAAAAAAAAAA==

> <PUBCHEM_IUPAC_OPENEYE_NAME>
1-[5-[(E)-2-dimethoxyphosphorylvinyl]-4-[methoxy(methyl)phosphoryl]oxy-tetrahydrofuran-2-yl]-5-methyl-pyrimidine-2,4-dione

> <PUBCHEM_IUPAC_CAS_NAME>
1-[5-[(E)-2-dimethoxyphosphorylethenyl]-4-[methoxy(methyl)phosphoryl]oxy-2-oxolanyl]-5-methylpyrimidine-2,4-dione

> <PUBCHEM_IUPAC_NAME_MARKUP>
1-[5-[(<I>E</I>)-2-dimethoxyphosphorylethenyl]-4-[methoxy(methyl)phosphoryl]oxyoxolan-2-yl]-5-methylpyrimidine-2,4-dione

> <PUBCHEM_IUPAC_NAME>
1-[5-[(E)-2-dimethoxyphosphorylethenyl]-4-[methoxy(methyl)phosphoryl]oxyoxolan-2-yl]-5-methylpyrimidine-2,4-dione

> <PUBCHEM_IUPAC_SYSTEMATIC_NAME>
1-[5-[(E)-2-dimethoxyphosphorylethenyl]-4-[methoxy(methyl)phosphoryl]oxy-oxolan-2-yl]-5-methyl-pyrimidine-2,4-dione

> <PUBCHEM_IUPAC_TRADITIONAL_NAME>
1-[5-[(E)-2-dimethoxyphosphorylvinyl]-4-[methoxy(methyl)phosphoryl]oxy-tetrahydrofuran-2-yl]-5-methyl-pyrimidine-2,4-quinone

> <PUBCHEM_IUPAC_INCHI>
InChI=1S/C15H24N2O9P2/c1-10-9-17(15(19)16-14(10)18)13-8-12(26-27(5,20)22-2)11(25-13)6-7-28(21,23-3)24-4/h6-7,9,11-13H,8H2,1-5H3,(H,16,18,19)/b7-6+

> <PUBCHEM_IUPAC_INCHIKEY>
DATLWMCZDDDFSU-VOTSOKGWSA-N

> <PUBCHEM_XLOGP3_AA>
-1.5

> <PUBCHEM_EXACT_MASS>
438.09570434

> <PUBCHEM_MOLECULAR_FORMULA>
C15H24N2O9P2

> <PUBCHEM_MOLECULAR_WEIGHT>
438.31

> <PUBCHEM_OPENEYE_CAN_SMILES>
CC1=CN(C(=O)NC1=O)C2CC(C(O2)C=CP(=O)(OC)OC)OP(=O)(C)OC

> <PUBCHEM_OPENEYE_ISO_SMILES>
CC1=CN(C(=O)NC1=O)C2CC(C(O2)/C=C/P(=O)(OC)OC)OP(=O)(C)OC

> <PUBCHEM_CACTVS_TPSA>
130

> <PUBCHEM_MONOISOTOPIC_WEIGHT>
438.09570434

> <PUBCHEM_TOTAL_CHARGE>
0

> <PUBCHEM_HEAVY_ATOM_COUNT>
28

> <PUBCHEM_ATOM_DEF_STEREO_COUNT>
0

> <PUBCHEM_ATOM_UDEF_STEREO_COUNT>
4

> <PUBCHEM_BOND_DEF_STEREO_COUNT>
1

> <PUBCHEM_BOND_UDEF_STEREO_COUNT>
0

> <PUBCHEM_ISOTOPIC_ATOM_COUNT>
0

> <PUBCHEM_COMPONENT_COUNT>
1

> <PUBCHEM_CACTVS_TAUTO_COUNT>
-1

> <PUBCHEM_COORDINATE_TYPE>
1
5
255

> <PUBCHEM_BONDANNOTATIONS>
1  23  3
16  12  3
12  19  8
12  20  8
13  20  8
13  24  8
17  18  3
19  22  8
22  24  8
14  4  3

$$$$
