 
  -OEChem-10192103472D

 53 52  0     1  0  0  0  0  0999 V2000
    4.2690    2.7500    0.0000 P   0  0  0  0  0  0  0  0  0  0  0  0
    5.1350    1.2500    0.0000 O   0  0  0  0  0  0  0  0  0  0  0  0
    5.1350    3.2500    0.0000 O   0  0  0  0  0  0  0  0  0  0  0  0
    5.1350   -1.7500    0.0000 O   0  0  0  0  0  0  0  0  0  0  0  0
    6.8671    4.2500    0.0000 O   0  0  0  0  0  0  0  0  0  0  0  0
    2.5369   -1.2500    0.0000 O   0  0  0  0  0  0  0  0  0  0  0  0
    7.7331    1.7500    0.0000 O   0  0  0  0  0  0  0  0  0  0  0  0
    3.4030    0.2500    0.0000 O   0  0  0  0  0  0  0  0  0  0  0  0
    8.5991    4.2500    0.0000 O   0  0  0  0  0  0  0  0  0  0  0  0
    4.2690   -3.2500    0.0000 O   0  0  0  0  0  0  0  0  0  0  0  0
   10.3312    3.2500    0.0000 O   0  0  0  0  0  0  0  0  0  0  0  0
    2.5369   -4.2500    0.0000 O   0  0  0  0  0  0  0  0  0  0  0  0
    6.8671    1.2500    0.0000 O   0  0  0  0  0  0  0  0  0  0  0  0
    3.4030    2.2500    0.0000 O   0  0  0  0  0  0  0  0  0  0  0  0
    3.7690    3.6160    0.0000 O   0  0  0  0  0  0  0  0  0  0  0  0
    4.7690    1.8840    0.0000 O   0  0  0  0  0  0  0  0  0  0  0  0
    4.2690   -1.2500    0.0000 C   0  0  1  0  0  0  0  0  0  0  0  0
    6.8671    3.2500    0.0000 C   0  0  1  0  0  0  0  0  0  0  0  0
    3.4030   -1.7500    0.0000 C   0  0  1  0  0  0  0  0  0  0  0  0
    7.7331    2.7500    0.0000 C   0  0  1  0  0  0  0  0  0  0  0  0
    4.2690   -0.2500    0.0000 C   0  0  1  0  0  0  0  0  0  0  0  0
    6.0010    2.7500    0.0000 C   0  0  2  0  0  0  0  0  0  0  0  0
    8.5991    3.2500    0.0000 C   0  0  1  0  0  0  0  0  0  0  0  0
    3.4030   -2.7500    0.0000 C   0  0  2  0  0  0  0  0  0  0  0  0
    5.1350    0.2500    0.0000 C   0  0  0  0  0  0  0  0  0  0  0  0
    6.0010    1.7500    0.0000 C   0  0  0  0  0  0  0  0  0  0  0  0
    9.4651    2.7500    0.0000 C   0  0  0  0  0  0  0  0  0  0  0  0
    2.5369   -3.2500    0.0000 C   0  0  0  0  0  0  0  0  0  0  0  0
    4.2690   -1.8700    0.0000 H   0  0  0  0  0  0  0  0  0  0  0  0
    6.3301    3.5600    0.0000 H   0  0  0  0  0  0  0  0  0  0  0  0
    3.4030   -1.1300    0.0000 H   0  0  0  0  0  0  0  0  0  0  0  0
    8.2700    2.4400    0.0000 H   0  0  0  0  0  0  0  0  0  0  0  0
    4.2690    0.3700    0.0000 H   0  0  0  0  0  0  0  0  0  0  0  0
    5.4641    2.4400    0.0000 H   0  0  0  0  0  0  0  0  0  0  0  0
    8.0622    3.5600    0.0000 H   0  0  0  0  0  0  0  0  0  0  0  0
    3.4030   -3.3700    0.0000 H   0  0  0  0  0  0  0  0  0  0  0  0
    5.3471   -0.3326    0.0000 H   0  0  0  0  0  0  0  0  0  0  0  0
    5.7456    0.3577    0.0000 H   0  0  0  0  0  0  0  0  0  0  0  0
    9.0666    2.2750    0.0000 H   0  0  0  0  0  0  0  0  0  0  0  0
    9.8637    2.2750    0.0000 H   0  0  0  0  0  0  0  0  0  0  0  0
    2.3249   -2.6674    0.0000 H   0  0  0  0  0  0  0  0  0  0  0  0
    1.9264   -3.3577    0.0000 H   0  0  0  0  0  0  0  0  0  0  0  0
    5.1350   -2.3700    0.0000 H   0  0  0  0  0  0  0  0  0  0  0  0
    7.4040    4.5600    0.0000 H   0  0  0  0  0  0  0  0  0  0  0  0
    2.0000   -1.5600    0.0000 H   0  0  0  0  0  0  0  0  0  0  0  0
    8.2700    1.4400    0.0000 H   0  0  0  0  0  0  0  0  0  0  0  0
    2.8660   -0.0600    0.0000 H   0  0  0  0  0  0  0  0  0  0  0  0
    9.1360    4.5600    0.0000 H   0  0  0  0  0  0  0  0  0  0  0  0
    4.2690   -3.8700    0.0000 H   0  0  0  0  0  0  0  0  0  0  0  0
   10.8681    2.9400    0.0000 H   0  0  0  0  0  0  0  0  0  0  0  0
    2.0000   -4.5600    0.0000 H   0  0  0  0  0  0  0  0  0  0  0  0
    2.8660    2.5600    0.0000 H   0  0  0  0  0  0  0  0  0  0  0  0
    4.0790    4.1530    0.0000 H   0  0  0  0  0  0  0  0  0  0  0  0
  1  3  1  0  0  0  0
  1 14  1  0  0  0  0
  1 15  1  0  0  0  0
  1 16  2  0  0  0  0
  2 25  1  0  0  0  0
  2 26  1  0  0  0  0
 22  3  1  6  0  0  0
 17  4  1  1  0  0  0
  4 43  1  0  0  0  0
 18  5  1  1  0  0  0
  5 44  1  0  0  0  0
 19  6  1  1  0  0  0
  6 45  1  0  0  0  0
 20  7  1  1  0  0  0
  7 46  1  0  0  0  0
 21  8  1  6  0  0  0
  8 47  1  0  0  0  0
 23  9  1  6  0  0  0
  9 48  1  0  0  0  0
 24 10  1  1  0  0  0
 10 49  1  0  0  0  0
 11 27  1  0  0  0  0
 11 50  1  0  0  0  0
 12 28  1  0  0  0  0
 12 51  1  0  0  0  0
 13 26  2  0  0  0  0
 14 52  1  0  0  0  0
 15 53  1  0  0  0  0
 17 19  1  0  0  0  0
 17 21  1  0  0  0  0
 17 29  1  0  0  0  0
 18 20  1  0  0  0  0
 18 22  1  0  0  0  0
 18 30  1  0  0  0  0
 19 24  1  0  0  0  0
 19 31  1  0  0  0  0
 20 23  1  0  0  0  0
 20 32  1  0  0  0  0
 21 25  1  0  0  0  0
 21 33  1  0  0  0  0
 22 26  1  0  0  0  0
 22 34  1  0  0  0  0
 23 27  1  0  0  0  0
 23 35  1  0  0  0  0
 24 28  1  0  0  0  0
 24 36  1  0  0  0  0
 25 37  1  0  0  0  0
 25 38  1  0  0  0  0
 27 39  1  0  0  0  0
 27 40  1  0  0  0  0
 28 41  1  0  0  0  0
 28 42  1  0  0  0  0
M  END
> <PUBCHEM_COMPOUND_CID>
129720675

> <PUBCHEM_COMPOUND_CANONICALIZED>
1

> <PUBCHEM_CACTVS_COMPLEXITY>
511

> <PUBCHEM_CACTVS_HBOND_ACCEPTOR>
15

> <PUBCHEM_CACTVS_HBOND_DONOR>
11

> <PUBCHEM_CACTVS_ROTATABLE_BOND>
14

> <PUBCHEM_CACTVS_SUBSKEYS>
AAADceBwPAIAAAAAAAAAAAAAAAAAAAAAAAAAAAAAAAAAAAAAAAAAGgAACCAACBSggAIACAAABxAIQACQCIIAAAAAAAAAAAFAAAABEBYAAAACQAAFIAADAAHKbAxAAAAAAAAAAAAAAAAAAAAAAAAAAAAAAA==

> <PUBCHEM_IUPAC_OPENEYE_NAME>
[(2R,3R,4R,5S)-2,3,4,5,6-pentahydroxyhexyl] (2R,3S,4R,5R)-3,4,5,6-tetrahydroxy-2-phosphonooxy-hexanoate

> <PUBCHEM_IUPAC_CAS_NAME>
(2R,3S,4R,5R)-3,4,5,6-tetrahydroxy-2-phosphonooxyhexanoic acid [(2R,3R,4R,5S)-2,3,4,5,6-pentahydroxyhexyl] ester

> <PUBCHEM_IUPAC_NAME_MARKUP>
[(2<I>R</I>,3<I>R</I>,4<I>R</I>,5<I>S</I>)-2,3,4,5,6-pentahydroxyhexyl] (2<I>R</I>,3<I>S</I>,4<I>R</I>,5<I>R</I>)-3,4,5,6-tetrahydroxy-2-phosphonooxyhexanoate

> <PUBCHEM_IUPAC_NAME>
[(2R,3R,4R,5S)-2,3,4,5,6-pentahydroxyhexyl] (2R,3S,4R,5R)-3,4,5,6-tetrahydroxy-2-phosphonooxyhexanoate

> <PUBCHEM_IUPAC_SYSTEMATIC_NAME>
[(2R,3R,4R,5S)-2,3,4,5,6-pentakis(oxidanyl)hexyl] (2R,3S,4R,5R)-3,4,5,6-tetrakis(oxidanyl)-2-phosphonooxy-hexanoate

> <PUBCHEM_IUPAC_TRADITIONAL_NAME>
(2R,3S,4R,5R)-3,4,5,6-tetrahydroxy-2-phosphonooxy-hexanoic acid [(2R,3R,4R,5S)-2,3,4,5,6-pentahydroxyhexyl] ester

> <PUBCHEM_IUPAC_INCHI>
InChI=1S/C12H25O15P/c13-1-4(15)7(18)9(20)6(17)3-26-12(22)11(27-28(23,24)25)10(21)8(19)5(16)2-14/h4-11,13-21H,1-3H2,(H2,23,24,25)/t4-,5+,6+,7+,8+,9+,10-,11+/m0/s1

> <PUBCHEM_IUPAC_INCHIKEY>
OAEYQYJEBVEANP-GGMLNFKUSA-N

> <PUBCHEM_XLOGP3_AA>
-7.3

> <PUBCHEM_EXACT_MASS>
440.09310708

> <PUBCHEM_MOLECULAR_FORMULA>
C12H25O15P

> <PUBCHEM_MOLECULAR_WEIGHT>
440.29

> <PUBCHEM_OPENEYE_CAN_SMILES>
C(C(C(C(C(COC(=O)C(C(C(C(CO)O)O)O)OP(=O)(O)O)O)O)O)O)O

> <PUBCHEM_OPENEYE_ISO_SMILES>
C([C@@H]([C@H]([C@@H]([C@@H](COC(=O)[C@@H]([C@H]([C@@H]([C@@H](CO)O)O)O)OP(=O)(O)O)O)O)O)O)O

> <PUBCHEM_CACTVS_TPSA>
275

> <PUBCHEM_MONOISOTOPIC_WEIGHT>
440.09310708

> <PUBCHEM_TOTAL_CHARGE>
0

> <PUBCHEM_HEAVY_ATOM_COUNT>
28

> <PUBCHEM_ATOM_DEF_STEREO_COUNT>
8

> <PUBCHEM_ATOM_UDEF_STEREO_COUNT>
0

> <PUBCHEM_BOND_DEF_STEREO_COUNT>
0

> <PUBCHEM_BOND_UDEF_STEREO_COUNT>
0

> <PUBCHEM_ISOTOPIC_ATOM_COUNT>
0

> <PUBCHEM_COMPONENT_COUNT>
1

> <PUBCHEM_CACTVS_TAUTO_COUNT>
-1

> <PUBCHEM_COORDINATE_TYPE>
1
5
255

> <PUBCHEM_BONDANNOTATIONS>
24  10  5
22  3  6
17  4  5
18  5  5
19  6  5
20  7  5
21  8  6
23  9  6

$$$$
