 
  -OEChem-10192103572D

 79 81  0     1  0  0  0  0  0999 V2000
    7.1962    3.7500    0.0000 O   0  0  0  0  0  0  0  0  0  0  0  0
    8.0622   -0.7500    0.0000 O   0  0  0  0  0  0  0  0  0  0  0  0
    4.5981   -0.7500    0.0000 O   0  0  0  0  0  0  0  0  0  0  0  0
    4.5981    1.2500    0.0000 O   0  0  0  0  0  0  0  0  0  0  0  0
   10.6603   -0.2500    0.0000 O   0  0  0  0  0  0  0  0  0  0  0  0
    4.5981   -1.7500    0.0000 O   0  0  0  0  0  0  0  0  0  0  0  0
    4.5981    4.2500    0.0000 O   0  0  0  0  0  0  0  0  0  0  0  0
   12.3923   -0.2500    0.0000 O   0  0  0  0  0  0  0  0  0  0  0  0
    3.7320   -3.2500    0.0000 O   0  0  0  0  0  0  0  0  0  0  0  0
    2.8660    5.2500    0.0000 O   0  0  0  0  0  0  0  0  0  0  0  0
   14.1244    0.7500    0.0000 O   0  0  0  0  0  0  0  0  0  0  0  0
    3.7320   -5.2500    0.0000 O   0  0  0  0  0  0  0  0  0  0  0  0
    7.1962    0.7500    0.0000 N   0  0  0  0  0  0  0  0  0  0  0  0
    5.4641    2.7500    0.0000 N   0  0  0  0  0  0  0  0  0  0  0  0
    9.7942    1.2500    0.0000 N   0  0  0  0  0  0  0  0  0  0  0  0
    6.3301   -1.7500    0.0000 N   0  0  0  0  0  0  0  0  0  0  0  0
    3.7320    3.7500    0.0000 N   0  0  0  0  0  0  0  0  0  0  0  0
   12.3923    0.7500    0.0000 N   0  0  0  0  0  0  0  0  0  0  0  0
    4.5981   -3.7500    0.0000 N   0  0  0  0  0  0  0  0  0  0  0  0
    6.3301    1.2500    0.0000 C   0  0  0  0  0  0  0  0  0  0  0  0
    8.0622    1.2500    0.0000 C   0  0  0  0  0  0  0  0  0  0  0  0
    7.1962   -0.2500    0.0000 C   0  0  0  0  0  0  0  0  0  0  0  0
    6.3301    2.2500    0.0000 C   0  0  2  0  0  0  0  0  0  0  0  0
    8.9282    0.7500    0.0000 C   0  0  2  0  0  0  0  0  0  0  0  0
    6.3301   -0.7500    0.0000 C   0  0  2  0  0  0  0  0  0  0  0  0
    7.1962    2.7500    0.0000 C   0  0  0  0  0  0  0  0  0  0  0  0
    8.9282   -0.2500    0.0000 C   0  0  0  0  0  0  0  0  0  0  0  0
    5.4641   -0.2500    0.0000 C   0  0  0  0  0  0  0  0  0  0  0  0
    4.5981    2.2500    0.0000 C   0  0  0  0  0  0  0  0  0  0  0  0
   10.6603    0.7500    0.0000 C   0  0  0  0  0  0  0  0  0  0  0  0
    5.4641   -2.2500    0.0000 C   0  0  0  0  0  0  0  0  0  0  0  0
    3.7320    2.7500    0.0000 C   0  0  0  0  0  0  0  0  0  0  0  0
   11.5263    1.2500    0.0000 C   0  0  0  0  0  0  0  0  0  0  0  0
    5.4641   -3.2500    0.0000 C   0  0  0  0  0  0  0  0  0  0  0  0
    2.8660    2.2500    0.0000 C   0  0  0  0  0  0  0  0  0  0  0  0
   11.5263    2.2500    0.0000 C   0  0  0  0  0  0  0  0  0  0  0  0
    6.3301   -3.7500    0.0000 C   0  0  0  0  0  0  0  0  0  0  0  0
    2.8660    4.2500    0.0000 C   0  0  0  0  0  0  0  0  0  0  0  0
   13.2583    1.2500    0.0000 C   0  0  0  0  0  0  0  0  0  0  0  0
    4.5981   -4.7500    0.0000 C   0  0  0  0  0  0  0  0  0  0  0  0
    2.0000    2.7500    0.0000 C   0  0  0  0  0  0  0  0  0  0  0  0
   12.3923    2.7500    0.0000 C   0  0  0  0  0  0  0  0  0  0  0  0
    6.3301   -4.7500    0.0000 C   0  0  0  0  0  0  0  0  0  0  0  0
    2.0000    3.7500    0.0000 C   0  0  0  0  0  0  0  0  0  0  0  0
   13.2583    2.2500    0.0000 C   0  0  0  0  0  0  0  0  0  0  0  0
    5.4641   -5.2500    0.0000 C   0  0  0  0  0  0  0  0  0  0  0  0
    5.7196    1.3577    0.0000 H   0  0  0  0  0  0  0  0  0  0  0  0
    6.1181    0.6674    0.0000 H   0  0  0  0  0  0  0  0  0  0  0  0
    8.4607    1.7250    0.0000 H   0  0  0  0  0  0  0  0  0  0  0  0
    7.6636    1.7250    0.0000 H   0  0  0  0  0  0  0  0  0  0  0  0
    7.4082   -0.8326    0.0000 H   0  0  0  0  0  0  0  0  0  0  0  0
    7.8067   -0.1423    0.0000 H   0  0  0  0  0  0  0  0  0  0  0  0
    5.7932    1.9400    0.0000 H   0  0  0  0  0  0  0  0  0  0  0  0
    9.4651    0.4400    0.0000 H   0  0  0  0  0  0  0  0  0  0  0  0
    6.8671   -1.0600    0.0000 H   0  0  0  0  0  0  0  0  0  0  0  0
    7.4082    2.1674    0.0000 H   0  0  0  0  0  0  0  0  0  0  0  0
    7.8067    2.8577    0.0000 H   0  0  0  0  0  0  0  0  0  0  0  0
    9.1403   -0.8326    0.0000 H   0  0  0  0  0  0  0  0  0  0  0  0
    9.5388   -0.1423    0.0000 H   0  0  0  0  0  0  0  0  0  0  0  0
    5.8626    0.2249    0.0000 H   0  0  0  0  0  0  0  0  0  0  0  0
    5.0656    0.2249    0.0000 H   0  0  0  0  0  0  0  0  0  0  0  0
    5.4641    3.3700    0.0000 H   0  0  0  0  0  0  0  0  0  0  0  0
    9.7942    1.8700    0.0000 H   0  0  0  0  0  0  0  0  0  0  0  0
    6.8671   -2.0600    0.0000 H   0  0  0  0  0  0  0  0  0  0  0  0
    6.6592    4.0600    0.0000 H   0  0  0  0  0  0  0  0  0  0  0  0
    8.0622   -1.3700    0.0000 H   0  0  0  0  0  0  0  0  0  0  0  0
    4.0611   -0.4400    0.0000 H   0  0  0  0  0  0  0  0  0  0  0  0
    2.8660    1.6300    0.0000 H   0  0  0  0  0  0  0  0  0  0  0  0
   10.9893    2.5600    0.0000 H   0  0  0  0  0  0  0  0  0  0  0  0
    6.8671   -3.4400    0.0000 H   0  0  0  0  0  0  0  0  0  0  0  0
    1.4631    2.4400    0.0000 H   0  0  0  0  0  0  0  0  0  0  0  0
   12.3923    3.3700    0.0000 H   0  0  0  0  0  0  0  0  0  0  0  0
    6.8671   -5.0600    0.0000 H   0  0  0  0  0  0  0  0  0  0  0  0
    1.4631    4.0600    0.0000 H   0  0  0  0  0  0  0  0  0  0  0  0
   13.7953    2.5600    0.0000 H   0  0  0  0  0  0  0  0  0  0  0  0
    5.4641   -5.8700    0.0000 H   0  0  0  0  0  0  0  0  0  0  0  0
    4.5981    4.8700    0.0000 H   0  0  0  0  0  0  0  0  0  0  0  0
   12.9292   -0.5600    0.0000 H   0  0  0  0  0  0  0  0  0  0  0  0
    3.1951   -3.5600    0.0000 H   0  0  0  0  0  0  0  0  0  0  0  0
  1 26  1  0  0  0  0
  1 65  1  0  0  0  0
  2 27  1  0  0  0  0
  2 66  1  0  0  0  0
  3 28  1  0  0  0  0
  3 67  1  0  0  0  0
  4 29  2  0  0  0  0
  5 30  2  0  0  0  0
  6 31  2  0  0  0  0
  7 17  1  0  0  0  0
  7 77  1  0  0  0  0
  8 18  1  0  0  0  0
  8 78  1  0  0  0  0
  9 19  1  0  0  0  0
  9 79  1  0  0  0  0
 10 38  2  0  0  0  0
 11 39  2  0  0  0  0
 12 40  2  0  0  0  0
 13 20  1  0  0  0  0
 13 21  1  0  0  0  0
 13 22  1  0  0  0  0
 23 14  1  1  0  0  0
 14 29  1  0  0  0  0
 14 62  1  0  0  0  0
 24 15  1  1  0  0  0
 15 30  1  0  0  0  0
 15 63  1  0  0  0  0
 25 16  1  1  0  0  0
 16 31  1  0  0  0  0
 16 64  1  0  0  0  0
 17 32  1  0  0  0  0
 17 38  1  0  0  0  0
 18 33  1  0  0  0  0
 18 39  1  0  0  0  0
 19 34  1  0  0  0  0
 19 40  1  0  0  0  0
 20 23  1  0  0  0  0
 20 47  1  0  0  0  0
 20 48  1  0  0  0  0
 21 24  1  0  0  0  0
 21 49  1  0  0  0  0
 21 50  1  0  0  0  0
 22 25  1  0  0  0  0
 22 51  1  0  0  0  0
 22 52  1  0  0  0  0
 23 26  1  0  0  0  0
 23 53  1  0  0  0  0
 24 27  1  0  0  0  0
 24 54  1  0  0  0  0
 25 28  1  0  0  0  0
 25 55  1  0  0  0  0
 26 56  1  0  0  0  0
 26 57  1  0  0  0  0
 27 58  1  0  0  0  0
 27 59  1  0  0  0  0
 28 60  1  0  0  0  0
 28 61  1  0  0  0  0
 29 32  1  0  0  0  0
 30 33  1  0  0  0  0
 31 34  1  0  0  0  0
 32 35  2  0  0  0  0
 33 36  2  0  0  0  0
 34 37  2  0  0  0  0
 35 41  1  0  0  0  0
 35 68  1  0  0  0  0
 36 42  1  0  0  0  0
 36 69  1  0  0  0  0
 37 43  1  0  0  0  0
 37 70  1  0  0  0  0
 38 44  1  0  0  0  0
 39 45  1  0  0  0  0
 40 46  1  0  0  0  0
 41 44  2  0  0  0  0
 41 71  1  0  0  0  0
 42 45  2  0  0  0  0
 42 72  1  0  0  0  0
 43 46  2  0  0  0  0
 43 73  1  0  0  0  0
 44 74  1  0  0  0  0
 45 75  1  0  0  0  0
 46 76  1  0  0  0  0
M  END
> <PUBCHEM_COMPOUND_CID>
102037189

> <PUBCHEM_COMPOUND_CANONICALIZED>
1

> <PUBCHEM_CACTVS_COMPLEXITY>
1250

> <PUBCHEM_CACTVS_HBOND_ACCEPTOR>
13

> <PUBCHEM_CACTVS_HBOND_DONOR>
9

> <PUBCHEM_CACTVS_ROTATABLE_BOND>
15

> <PUBCHEM_CACTVS_SUBSKEYS>
AAADcfB7vAAAAAAAAAAAAAAAAAAAAAAAAAAgQIAAAAAAAAAAAAAAHgAUCAAACCjhgAYAAAPQAgCIACVSUACAAAAAAgAoCICIAEAKUAAAASAUQAACFgCQgYAAAAAAAAAAAAAAAAAAAAAAAAAAAAAAAAAAAA==

> <PUBCHEM_IUPAC_OPENEYE_NAME>
N-[(1R)-1-[[bis[(2R)-3-hydroxy-2-[(1-hydroxy-6-oxo-pyridine-2-carbonyl)amino]propyl]amino]methyl]-2-hydroxy-ethyl]-1-hydroxy-6-oxo-pyridine-2-carboxamide

> <PUBCHEM_IUPAC_CAS_NAME>
N-[(2R)-1-[bis[(2R)-3-hydroxy-2-[[(1-hydroxy-6-oxo-2-pyridinyl)-oxomethyl]amino]propyl]amino]-3-hydroxypropan-2-yl]-1-hydroxy-6-oxo-2-pyridinecarboxamide

> <PUBCHEM_IUPAC_NAME_MARKUP>
<I>N</I>-[(2<I>R</I>)-1-[bis[(2<I>R</I>)-3-hydroxy-2-[(1-hydroxy-6-oxopyridine-2-carbonyl)amino]propyl]amino]-3-hydroxypropan-2-yl]-1-hydroxy-6-oxopyridine-2-carboxamide

> <PUBCHEM_IUPAC_NAME>
N-[(2R)-1-[bis[(2R)-3-hydroxy-2-[(1-hydroxy-6-oxopyridine-2-carbonyl)amino]propyl]amino]-3-hydroxypropan-2-yl]-1-hydroxy-6-oxopyridine-2-carboxamide

> <PUBCHEM_IUPAC_SYSTEMATIC_NAME>
N-[(2R)-1-[bis[(2R)-3-oxidanyl-2-[(1-oxidanyl-6-oxidanylidene-pyridin-2-yl)carbonylamino]propyl]amino]-3-oxidanyl-propan-2-yl]-1-oxidanyl-6-oxidanylidene-pyridine-2-carboxamide

> <PUBCHEM_IUPAC_TRADITIONAL_NAME>
N-[(1R)-1-[[bis[(2R)-3-hydroxy-2-[(1-hydroxy-6-keto-picolinoyl)amino]propyl]amino]methyl]-2-hydroxy-ethyl]-1-hydroxy-6-keto-picolinamide

> <PUBCHEM_IUPAC_INCHI>
InChI=1S/C27H33N7O12/c35-13-16(28-25(41)19-4-1-7-22(38)32(19)44)10-31(11-17(14-36)29-26(42)20-5-2-8-23(39)33(20)45)12-18(15-37)30-27(43)21-6-3-9-24(40)34(21)46/h1-9,16-18,35-37,44-46H,10-15H2,(H,28,41)(H,29,42)(H,30,43)/t16-,17-,18-/m1/s1

> <PUBCHEM_IUPAC_INCHIKEY>
RCAMLNFBSDWOEM-KZNAEPCWSA-N

> <PUBCHEM_XLOGP3_AA>
-2.5

> <PUBCHEM_EXACT_MASS>
647.21871951

> <PUBCHEM_MOLECULAR_FORMULA>
C27H33N7O12

> <PUBCHEM_MOLECULAR_WEIGHT>
647.6

> <PUBCHEM_OPENEYE_CAN_SMILES>
C1=CC(=O)N(C(=C1)C(=O)NC(CN(CC(CO)NC(=O)C2=CC=CC(=O)N2O)CC(CO)NC(=O)C3=CC=CC(=O)N3O)CO)O

> <PUBCHEM_OPENEYE_ISO_SMILES>
C1=CC(=O)N(C(=C1)C(=O)N[C@H](CN(C[C@H](CO)NC(=O)C2=CC=CC(=O)N2O)C[C@H](CO)NC(=O)C3=CC=CC(=O)N3O)CO)O

> <PUBCHEM_CACTVS_TPSA>
273

> <PUBCHEM_MONOISOTOPIC_WEIGHT>
647.21871951

> <PUBCHEM_TOTAL_CHARGE>
0

> <PUBCHEM_HEAVY_ATOM_COUNT>
46

> <PUBCHEM_ATOM_DEF_STEREO_COUNT>
3

> <PUBCHEM_ATOM_UDEF_STEREO_COUNT>
0

> <PUBCHEM_BOND_DEF_STEREO_COUNT>
0

> <PUBCHEM_BOND_UDEF_STEREO_COUNT>
0

> <PUBCHEM_ISOTOPIC_ATOM_COUNT>
0

> <PUBCHEM_COMPONENT_COUNT>
1

> <PUBCHEM_CACTVS_TAUTO_COUNT>
-1

> <PUBCHEM_COORDINATE_TYPE>
1
5
255

> <PUBCHEM_BONDANNOTATIONS>
23  14  5
24  15  5
25  16  5
17  32  8
17  38  8
18  33  8
18  39  8
19  34  8
19  40  8
32  35  8
33  36  8
34  37  8
35  41  8
36  42  8
37  43  8
38  44  8
39  45  8
40  46  8
41  44  8
42  45  8
43  46  8

$$$$
