 
  -OEChem-10192104182D

 81 84  0     1  0  0  0  0  0999 V2000
    8.1424   -1.5401    0.0000 S   0  0  0  0  0  0  0  0  0  0  0  0
   14.2260   -1.6014    0.0000 S   0  0  0  0  0  0  0  0  0  0  0  0
    7.7852    1.7642    0.0000 O   0  0  0  0  0  0  0  0  0  0  0  0
    9.7260   -2.4674    0.0000 O   0  0  0  0  0  0  0  0  0  0  0  0
   14.2260   -2.6014    0.0000 O   0  0  0  0  0  0  0  0  0  0  0  0
   14.2260   -0.6014    0.0000 O   0  0  0  0  0  0  0  0  0  0  0  0
   17.2260   -3.3334    0.0000 O   0  0  0  0  0  0  0  0  0  0  0  0
   17.2260    0.1307    0.0000 O   0  0  0  0  0  0  0  0  0  0  0  0
   11.3886    1.6386    0.0000 O   0  0  0  0  0  0  0  0  0  0  0  0
    5.4641   -1.2353    0.0000 N   0  0  3  0  0  0  0  0  0  0  0  0
    9.7260   -0.7353    0.0000 N   0  0  0  0  0  0  0  0  0  0  0  0
   15.2260   -1.6014    0.0000 N   0  0  0  0  0  0  0  0  0  0  0  0
    9.4315    1.2261    0.0000 N   0  0  0  0  0  0  0  0  0  0  0  0
    9.7422    2.1767    0.0000 N   0  0  0  0  0  0  0  0  0  0  0  0
    5.4641   -0.2353    0.0000 C   0  0  0  0  0  0  0  0  0  0  0  0
    6.3301    0.2647    0.0000 C   0  0  0  0  0  0  0  0  0  0  0  0
    7.1962   -0.2353    0.0000 C   0  0  0  0  0  0  0  0  0  0  0  0
    6.3301   -1.7353    0.0000 C   0  0  0  0  0  0  0  0  0  0  0  0
    7.1962   -1.2353    0.0000 C   0  0  0  0  0  0  0  0  0  0  0  0
    4.5981   -1.7353    0.0000 C   0  0  0  0  0  0  0  0  0  0  0  0
    8.1424    0.0694    0.0000 C   0  0  0  0  0  0  0  0  0  0  0  0
    8.7260   -0.7353    0.0000 C   0  0  0  0  0  0  0  0  0  0  0  0
    3.7320   -1.2353    0.0000 C   0  0  0  0  0  0  0  0  0  0  0  0
    8.4530    1.0199    0.0000 C   0  0  0  0  0  0  0  0  0  0  0  0
    3.7320   -0.2353    0.0000 C   0  0  0  0  0  0  0  0  0  0  0  0
    2.8660   -1.7353    0.0000 C   0  0  0  0  0  0  0  0  0  0  0  0
   10.2260   -1.6014    0.0000 C   0  0  0  0  0  0  0  0  0  0  0  0
   11.2260   -1.6014    0.0000 C   0  0  0  0  0  0  0  0  0  0  0  0
   13.2260   -1.6014    0.0000 C   0  0  0  0  0  0  0  0  0  0  0  0
   15.7260   -2.4674    0.0000 C   0  0  0  0  0  0  0  0  0  0  0  0
   15.7260   -0.7353    0.0000 C   0  0  0  0  0  0  0  0  0  0  0  0
    2.8660    0.2647    0.0000 C   0  0  0  0  0  0  0  0  0  0  0  0
    2.0000   -1.2353    0.0000 C   0  0  0  0  0  0  0  0  0  0  0  0
    2.0000   -0.2353    0.0000 C   0  0  0  0  0  0  0  0  0  0  0  0
   12.7260   -2.4674    0.0000 C   0  0  0  0  0  0  0  0  0  0  0  0
   12.7260   -0.7353    0.0000 C   0  0  0  0  0  0  0  0  0  0  0  0
   11.7260   -2.4674    0.0000 C   0  0  0  0  0  0  0  0  0  0  0  0
   11.7260   -0.7353    0.0000 C   0  0  0  0  0  0  0  0  0  0  0  0
   16.7260   -2.4674    0.0000 C   0  0  0  0  0  0  0  0  0  0  0  0
   16.7260   -0.7353    0.0000 C   0  0  0  0  0  0  0  0  0  0  0  0
   10.7207    2.3829    0.0000 C   0  0  0  0  0  0  0  0  0  0  0  0
   18.2260   -3.3334    0.0000 C   0  0  0  0  0  0  0  0  0  0  0  0
   18.2260    0.1307    0.0000 C   0  0  0  0  0  0  0  0  0  0  0  0
   11.0314    3.3334    0.0000 C   0  0  0  0  0  0  0  0  0  0  0  0
    5.2520    0.3473    0.0000 H   0  0  0  0  0  0  0  0  0  0  0  0
    4.8535   -0.3430    0.0000 H   0  0  0  0  0  0  0  0  0  0  0  0
    6.7287    0.7396    0.0000 H   0  0  0  0  0  0  0  0  0  0  0  0
    5.9316    0.7396    0.0000 H   0  0  0  0  0  0  0  0  0  0  0  0
    5.9316   -2.2103    0.0000 H   0  0  0  0  0  0  0  0  0  0  0  0
    6.7287   -2.2103    0.0000 H   0  0  0  0  0  0  0  0  0  0  0  0
    4.1996   -2.2103    0.0000 H   0  0  0  0  0  0  0  0  0  0  0  0
    4.9966   -2.2103    0.0000 H   0  0  0  0  0  0  0  0  0  0  0  0
   10.0360   -0.1984    0.0000 H   0  0  0  0  0  0  0  0  0  0  0  0
    4.2690    0.0747    0.0000 H   0  0  0  0  0  0  0  0  0  0  0  0
    2.8660   -2.3553    0.0000 H   0  0  0  0  0  0  0  0  0  0  0  0
    9.8456    0.7647    0.0000 H   0  0  0  0  0  0  0  0  0  0  0  0
   15.1434   -2.6794    0.0000 H   0  0  0  0  0  0  0  0  0  0  0  0
   15.8336   -3.0780    0.0000 H   0  0  0  0  0  0  0  0  0  0  0  0
   15.8336   -0.1247    0.0000 H   0  0  0  0  0  0  0  0  0  0  0  0
   15.1434   -0.5233    0.0000 H   0  0  0  0  0  0  0  0  0  0  0  0
    2.8660    0.8847    0.0000 H   0  0  0  0  0  0  0  0  0  0  0  0
    1.4631   -1.5453    0.0000 H   0  0  0  0  0  0  0  0  0  0  0  0
   13.0360   -3.0043    0.0000 H   0  0  0  0  0  0  0  0  0  0  0  0
   13.0360   -0.1984    0.0000 H   0  0  0  0  0  0  0  0  0  0  0  0
   11.4160   -3.0043    0.0000 H   0  0  0  0  0  0  0  0  0  0  0  0
   11.4160   -0.1984    0.0000 H   0  0  0  0  0  0  0  0  0  0  0  0
    1.4631    0.0747    0.0000 H   0  0  0  0  0  0  0  0  0  0  0  0
   17.3086   -2.2553    0.0000 H   0  0  0  0  0  0  0  0  0  0  0  0
   16.6183   -1.8568    0.0000 H   0  0  0  0  0  0  0  0  0  0  0  0
   16.6183   -1.3459    0.0000 H   0  0  0  0  0  0  0  0  0  0  0  0
   17.3086   -0.9474    0.0000 H   0  0  0  0  0  0  0  0  0  0  0  0
    9.3281    2.6381    0.0000 H   0  0  0  0  0  0  0  0  0  0  0  0
   18.2260   -3.9534    0.0000 H   0  0  0  0  0  0  0  0  0  0  0  0
   18.8460   -3.3334    0.0000 H   0  0  0  0  0  0  0  0  0  0  0  0
   18.2260   -2.7134    0.0000 H   0  0  0  0  0  0  0  0  0  0  0  0
   18.2260   -0.4893    0.0000 H   0  0  0  0  0  0  0  0  0  0  0  0
   18.8460    0.1307    0.0000 H   0  0  0  0  0  0  0  0  0  0  0  0
   18.2260    0.7507    0.0000 H   0  0  0  0  0  0  0  0  0  0  0  0
   11.6207    3.1408    0.0000 H   0  0  0  0  0  0  0  0  0  0  0  0
   11.2240    3.9227    0.0000 H   0  0  0  0  0  0  0  0  0  0  0  0
   10.4420    3.5260    0.0000 H   0  0  0  0  0  0  0  0  0  0  0  0
  1 19  1  0  0  0  0
  1 22  1  0  0  0  0
  2  5  2  0  0  0  0
  2  6  2  0  0  0  0
  2 12  1  0  0  0  0
  2 29  1  0  0  0  0
  3 24  2  0  0  0  0
  4 27  2  0  0  0  0
  7 39  1  0  0  0  0
  7 42  1  0  0  0  0
  8 40  1  0  0  0  0
  8 43  1  0  0  0  0
  9 41  2  0  0  0  0
 10 15  1  0  0  0  0
 10 18  1  0  0  0  0
 10 20  1  0  0  0  0
 11 22  1  0  0  0  0
 11 27  1  0  0  0  0
 11 53  1  0  0  0  0
 12 30  1  0  0  0  0
 12 31  1  0  0  0  0
 13 14  1  0  0  0  0
 13 24  1  0  0  0  0
 13 56  1  0  0  0  0
 14 41  1  0  0  0  0
 14 72  1  0  0  0  0
 15 16  1  0  0  0  0
 15 45  1  0  0  0  0
 15 46  1  0  0  0  0
 16 17  1  0  0  0  0
 16 47  1  0  0  0  0
 16 48  1  0  0  0  0
 17 19  2  0  0  0  0
 17 21  1  0  0  0  0
 18 19  1  0  0  0  0
 18 49  1  0  0  0  0
 18 50  1  0  0  0  0
 20 23  1  0  0  0  0
 20 51  1  0  0  0  0
 20 52  1  0  0  0  0
 21 22  2  0  0  0  0
 21 24  1  0  0  0  0
 23 25  2  0  0  0  0
 23 26  1  0  0  0  0
 25 32  1  0  0  0  0
 25 54  1  0  0  0  0
 26 33  2  0  0  0  0
 26 55  1  0  0  0  0
 27 28  1  0  0  0  0
 28 37  2  0  0  0  0
 28 38  1  0  0  0  0
 29 35  2  0  0  0  0
 29 36  1  0  0  0  0
 30 39  1  0  0  0  0
 30 57  1  0  0  0  0
 30 58  1  0  0  0  0
 31 40  1  0  0  0  0
 31 59  1  0  0  0  0
 31 60  1  0  0  0  0
 32 34  2  0  0  0  0
 32 61  1  0  0  0  0
 33 34  1  0  0  0  0
 33 62  1  0  0  0  0
 34 67  1  0  0  0  0
 35 37  1  0  0  0  0
 35 63  1  0  0  0  0
 36 38  2  0  0  0  0
 36 64  1  0  0  0  0
 37 65  1  0  0  0  0
 38 66  1  0  0  0  0
 39 68  1  0  0  0  0
 39 69  1  0  0  0  0
 40 70  1  0  0  0  0
 40 71  1  0  0  0  0
 41 44  1  0  0  0  0
 42 73  1  0  0  0  0
 42 74  1  0  0  0  0
 42 75  1  0  0  0  0
 43 76  1  0  0  0  0
 43 77  1  0  0  0  0
 43 78  1  0  0  0  0
 44 79  1  0  0  0  0
 44 80  1  0  0  0  0
 44 81  1  0  0  0  0
M  END
> <PUBCHEM_COMPOUND_CID>
3586551

> <PUBCHEM_COMPOUND_CANONICALIZED>
1

> <PUBCHEM_CACTVS_COMPLEXITY>
1050

> <PUBCHEM_CACTVS_HBOND_ACCEPTOR>
10

> <PUBCHEM_CACTVS_HBOND_DONOR>
3

> <PUBCHEM_CACTVS_ROTATABLE_BOND>
13

> <PUBCHEM_CACTVS_SUBSKEYS>
AAADcfB7uABgAAAAAAAAAAAAAAAAASAAAAA8YIAAAAAAAFgB0AAAHgQYQAAADADh2AYygYPiBAqMAiFSUHDDAJBlCBsaqBkIRMgKIDrg1ZGFIYhglAD4yccYiQCOkAAAAAAAAAAgAAAAAAAAAAAAAAAAAA==

> <PUBCHEM_IUPAC_OPENEYE_NAME>
N-[3-(acetamidocarbamoyl)-6-benzyl-5,7-dihydro-4H-thieno[2,3-c]pyridin-2-yl]-4-[bis(2-methoxyethyl)sulfamoyl]benzamide

> <PUBCHEM_IUPAC_CAS_NAME>
N-[3-[(acetylhydrazo)-oxomethyl]-6-(phenylmethyl)-5,7-dihydro-4H-thieno[2,3-c]pyridin-2-yl]-4-[bis(2-methoxyethyl)sulfamoyl]benzamide

> <PUBCHEM_IUPAC_NAME_MARKUP>
<I>N</I>-[3-(acetamidocarbamoyl)-6-benzyl-5,7-dihydro-4<I>H</I>-thieno[2,3-c]pyridin-2-yl]-4-[bis(2-methoxyethyl)sulfamoyl]benzamide

> <PUBCHEM_IUPAC_NAME>
N-[3-(acetamidocarbamoyl)-6-benzyl-5,7-dihydro-4H-thieno[2,3-c]pyridin-2-yl]-4-[bis(2-methoxyethyl)sulfamoyl]benzamide

> <PUBCHEM_IUPAC_SYSTEMATIC_NAME>
N-[3-(acetamidocarbamoyl)-6-(phenylmethyl)-5,7-dihydro-4H-thieno[2,3-c]pyridin-2-yl]-4-[bis(2-methoxyethyl)sulfamoyl]benzamide

> <PUBCHEM_IUPAC_TRADITIONAL_NAME>
N-[3-(acetamidocarbamoyl)-6-benzyl-5,7-dihydro-4H-thieno[2,3-c]pyridin-2-yl]-4-[bis(2-methoxyethyl)sulfamoyl]benzamide

> <PUBCHEM_IUPAC_INCHI>
InChI=1S/C30H37N5O7S2/c1-21(36)32-33-29(38)27-25-13-14-34(19-22-7-5-4-6-8-22)20-26(25)43-30(27)31-28(37)23-9-11-24(12-10-23)44(39,40)35(15-17-41-2)16-18-42-3/h4-12H,13-20H2,1-3H3,(H,31,37)(H,32,36)(H,33,38)

> <PUBCHEM_IUPAC_INCHIKEY>
PHWHMSLBYSWDDL-UHFFFAOYSA-N

> <PUBCHEM_XLOGP3_AA>
2.4

> <PUBCHEM_EXACT_MASS>
643.21344088

> <PUBCHEM_MOLECULAR_FORMULA>
C30H37N5O7S2

> <PUBCHEM_MOLECULAR_WEIGHT>
643.8

> <PUBCHEM_OPENEYE_CAN_SMILES>
CC(=O)NNC(=O)C1=C(SC2=C1CCN(C2)CC3=CC=CC=C3)NC(=O)C4=CC=C(C=C4)S(=O)(=O)N(CCOC)CCOC

> <PUBCHEM_OPENEYE_ISO_SMILES>
CC(=O)NNC(=O)C1=C(SC2=C1CCN(C2)CC3=CC=CC=C3)NC(=O)C4=CC=C(C=C4)S(=O)(=O)N(CCOC)CCOC

> <PUBCHEM_CACTVS_TPSA>
183

> <PUBCHEM_MONOISOTOPIC_WEIGHT>
643.21344088

> <PUBCHEM_TOTAL_CHARGE>
0

> <PUBCHEM_HEAVY_ATOM_COUNT>
44

> <PUBCHEM_ATOM_DEF_STEREO_COUNT>
0

> <PUBCHEM_ATOM_UDEF_STEREO_COUNT>
0

> <PUBCHEM_BOND_DEF_STEREO_COUNT>
0

> <PUBCHEM_BOND_UDEF_STEREO_COUNT>
0

> <PUBCHEM_ISOTOPIC_ATOM_COUNT>
0

> <PUBCHEM_COMPONENT_COUNT>
1

> <PUBCHEM_CACTVS_TAUTO_COUNT>
-1

> <PUBCHEM_COORDINATE_TYPE>
1
5
255

> <PUBCHEM_BONDANNOTATIONS>
1  19  8
1  22  8
17  19  8
17  21  8
21  22  8
23  25  8
23  26  8
25  32  8
26  33  8
28  37  8
28  38  8
29  35  8
29  36  8
32  34  8
33  34  8
35  37  8
36  38  8

$$$$
