 
  -OEChem-10192104022D

 25 25  0     1  0  0  0  0  0999 V2000
    3.7690    1.7500    0.0000 O   0  0  0  0  0  0  0  0  0  0  0  0
    2.5369    0.8840    0.0000 O   0  0  0  0  0  0  0  0  0  0  0  0
    5.7690    1.7500    0.0000 O   0  0  0  0  0  0  0  0  0  0  0  0
    4.2690    2.6160    0.0000 O   0  0  0  0  0  0  0  0  0  0  0  0
    4.2690    0.8840    0.0000 C   0  0  1  0  0  0  0  0  0  0  0  0
    3.4030    0.3840    0.0000 C   0  0  2  0  0  0  0  0  0  0  0  0
    4.2690   -1.1160    0.0000 C   0  0  0  0  0  0  0  0  0  0  0  0
    3.4030   -0.6160    0.0000 C   0  0  0  0  0  0  0  0  0  0  0  0
    5.1350    0.3840    0.0000 C   0  0  0  0  0  0  0  0  0  0  0  0
    5.1350   -0.6160    0.0000 C   0  0  0  0  0  0  0  0  0  0  0  0
    4.2690   -2.1160    0.0000 C   0  0  0  0  0  0  0  0  0  0  0  0
    4.7690    1.7500    0.0000 C   0  0  0  0  0  0  0  0  0  0  0  0
    5.1350   -2.6160    0.0000 C   0  0  0  0  0  0  0  0  0  0  0  0
    3.4030    1.0040    0.0000 H   0  0  0  0  0  0  0  0  0  0  0  0
    2.8660   -0.9260    0.0000 H   0  0  0  0  0  0  0  0  0  0  0  0
    5.6720    0.6940    0.0000 H   0  0  0  0  0  0  0  0  0  0  0  0
    5.6720   -0.9260    0.0000 H   0  0  0  0  0  0  0  0  0  0  0  0
    3.6584   -2.0084    0.0000 H   0  0  0  0  0  0  0  0  0  0  0  0
    4.0569   -2.6986    0.0000 H   0  0  0  0  0  0  0  0  0  0  0  0
    3.1490    1.7500    0.0000 H   0  0  0  0  0  0  0  0  0  0  0  0
    2.0000    0.5740    0.0000 H   0  0  0  0  0  0  0  0  0  0  0  0
    4.8250   -3.1530    0.0000 H   0  0  0  0  0  0  0  0  0  0  0  0
    5.6720   -2.9260    0.0000 H   0  0  0  0  0  0  0  0  0  0  0  0
    5.4450   -2.0791    0.0000 H   0  0  0  0  0  0  0  0  0  0  0  0
    6.0790    2.2869    0.0000 H   0  0  0  0  0  0  0  0  0  0  0  0
  5  1  1  6  0  0  0
  1 20  1  0  0  0  0
  6  2  1  6  0  0  0
  2 21  1  0  0  0  0
  3 12  1  0  0  0  0
  3 25  1  0  0  0  0
  4 12  2  0  0  0  0
  5  6  1  0  0  0  0
  5  9  1  0  0  0  0
  5 12  1  0  0  0  0
  6  8  1  0  0  0  0
  6 14  1  0  0  0  0
  7  8  2  0  0  0  0
  7 10  1  0  0  0  0
  7 11  1  0  0  0  0
  8 15  1  0  0  0  0
  9 10  2  0  0  0  0
  9 16  1  0  0  0  0
 10 17  1  0  0  0  0
 11 13  1  0  0  0  0
 11 18  1  0  0  0  0
 11 19  1  0  0  0  0
 13 22  1  0  0  0  0
 13 23  1  0  0  0  0
 13 24  1  0  0  0  0
M  END
> <PUBCHEM_COMPOUND_CID>
131166551

> <PUBCHEM_COMPOUND_CANONICALIZED>
1

> <PUBCHEM_CACTVS_COMPLEXITY>
279

> <PUBCHEM_CACTVS_HBOND_ACCEPTOR>
4

> <PUBCHEM_CACTVS_HBOND_DONOR>
3

> <PUBCHEM_CACTVS_ROTATABLE_BOND>
2

> <PUBCHEM_CACTVS_SUBSKEYS>
AAADccBwOAAAAAAAAAAAAAAAAAAAAAAAAAAgAAAAAAAAAAAAAAAAGgAACAAADFSggAICCAAAAgCIAiDSCAIAAAAgAAAICAFAAAgJFBQAAQAAUAAF4AAJkAIAAAAIAAAAAAAAAAAAAAAAAAAAAAAAAAAAAA==

> <PUBCHEM_IUPAC_OPENEYE_NAME>
(1R,6S)-4-ethyl-1,6-dihydroxy-cyclohexa-2,4-diene-1-carboxylic acid

> <PUBCHEM_IUPAC_CAS_NAME>
(1R,6S)-4-ethyl-1,6-dihydroxy-1-cyclohexa-2,4-dienecarboxylic acid

> <PUBCHEM_IUPAC_NAME_MARKUP>
(1<I>R</I>,6<I>S</I>)-4-ethyl-1,6-dihydroxycyclohexa-2,4-diene-1-carboxylic acid

> <PUBCHEM_IUPAC_NAME>
(1R,6S)-4-ethyl-1,6-dihydroxycyclohexa-2,4-diene-1-carboxylic acid

> <PUBCHEM_IUPAC_SYSTEMATIC_NAME>
(1R,6S)-4-ethyl-1,6-bis(oxidanyl)cyclohexa-2,4-diene-1-carboxylic acid

> <PUBCHEM_IUPAC_TRADITIONAL_NAME>
(1R,6S)-4-ethyl-1,6-dihydroxy-cyclohexa-2,4-diene-1-carboxylic acid

> <PUBCHEM_IUPAC_INCHI>
InChI=1S/C9H12O4/c1-2-6-3-4-9(13,8(11)12)7(10)5-6/h3-5,7,10,13H,2H2,1H3,(H,11,12)/t7-,9+/m0/s1

> <PUBCHEM_IUPAC_INCHIKEY>
CVJIFGXRMWPWPV-IONNQARKSA-N

> <PUBCHEM_XLOGP3_AA>
0.4

> <PUBCHEM_EXACT_MASS>
184.07355886

> <PUBCHEM_MOLECULAR_FORMULA>
C9H12O4

> <PUBCHEM_MOLECULAR_WEIGHT>
184.19

> <PUBCHEM_OPENEYE_CAN_SMILES>
CCC1=CC(C(C=C1)(C(=O)O)O)O

> <PUBCHEM_OPENEYE_ISO_SMILES>
CCC1=C[C@@H]([C@](C=C1)(C(=O)O)O)O

> <PUBCHEM_CACTVS_TPSA>
77.8

> <PUBCHEM_MONOISOTOPIC_WEIGHT>
184.07355886

> <PUBCHEM_TOTAL_CHARGE>
0

> <PUBCHEM_HEAVY_ATOM_COUNT>
13

> <PUBCHEM_ATOM_DEF_STEREO_COUNT>
2

> <PUBCHEM_ATOM_UDEF_STEREO_COUNT>
0

> <PUBCHEM_BOND_DEF_STEREO_COUNT>
0

> <PUBCHEM_BOND_UDEF_STEREO_COUNT>
0

> <PUBCHEM_ISOTOPIC_ATOM_COUNT>
0

> <PUBCHEM_COMPONENT_COUNT>
1

> <PUBCHEM_CACTVS_TAUTO_COUNT>
-1

> <PUBCHEM_COORDINATE_TYPE>
1
5
255

> <PUBCHEM_BONDANNOTATIONS>
5  1  6
6  2  6

$$$$
