 
  -OEChem-10192103582D

 89 91  0     1  0  0  0  0  0999 V2000
    8.0622   -2.0000    0.0000 O   0  0  0  0  0  0  0  0  0  0  0  0
    6.3301   -2.0000    0.0000 O   0  0  0  0  0  0  0  0  0  0  0  0
    8.0622    1.0000    0.0000 O   0  0  0  0  0  0  0  0  0  0  0  0
    6.3301   -1.0000    0.0000 O   0  0  0  0  0  0  0  0  0  0  0  0
    9.7942   -1.0000    0.0000 O   0  0  0  0  0  0  0  0  0  0  0  0
    8.0622   -4.0000    0.0000 O   0  0  0  0  0  0  0  0  0  0  0  0
    4.5981   -4.0000    0.0000 O   0  0  0  0  0  0  0  0  0  0  0  0
    6.3301   -5.0000    0.0000 O   0  0  0  0  0  0  0  0  0  0  0  0
    9.7942    1.0000    0.0000 O   0  0  0  0  0  0  0  0  0  0  0  0
    6.3301    2.0000    0.0000 O   0  0  0  0  0  0  0  0  0  0  0  0
    3.7320   -2.5000    0.0000 O   0  0  0  0  0  0  0  0  0  0  0  0
    4.5981   -1.0000    0.0000 O   0  0  0  0  0  0  0  0  0  0  0  0
   10.6603    0.5000    0.0000 O   0  0  0  0  0  0  0  0  0  0  0  0
    8.9282   -2.5000    0.0000 O   0  0  0  0  0  0  0  0  0  0  0  0
    5.4641   -5.5000    0.0000 O   0  0  0  0  0  0  0  0  0  0  0  0
    4.5981    2.0000    0.0000 O   0  0  0  0  0  0  0  0  0  0  0  0
    2.8660   -1.0000    0.0000 O   0  0  0  0  0  0  0  0  0  0  0  0
    9.7942    5.0000    0.0000 O   0  0  0  0  0  0  0  0  0  0  0  0
    8.0622   -1.0000    0.0000 C   0  0  1  0  0  0  0  0  0  0  0  0
    7.1962   -0.5000    0.0000 C   0  0  1  0  0  0  0  0  0  0  0  0
    8.9282   -0.5000    0.0000 C   0  0  2  0  0  0  0  0  0  0  0  0
    7.1962   -2.5000    0.0000 C   0  0  1  0  0  0  0  0  0  0  0  0
    7.1962   -3.5000    0.0000 C   0  0  1  0  0  0  0  0  0  0  0  0
    7.1962    0.5000    0.0000 C   0  0  1  0  0  0  0  0  0  0  0  0
    6.3301   -4.0000    0.0000 C   0  0  2  0  0  0  0  0  0  0  0  0
    5.4641   -3.5000    0.0000 C   0  0  1  0  0  0  0  0  0  0  0  0
    5.4641   -2.5000    0.0000 C   0  0  1  0  0  0  0  0  0  0  0  0
    8.9282    0.5000    0.0000 C   0  0  1  0  0  0  0  0  0  0  0  0
    6.3301    1.0000    0.0000 C   0  0  0  0  0  0  0  0  0  0  0  0
    4.5981   -2.0000    0.0000 C   0  0  0  0  0  0  0  0  0  0  0  0
    5.4641   -0.5000    0.0000 C   0  0  0  0  0  0  0  0  0  0  0  0
   10.6603   -0.5000    0.0000 C   0  0  0  0  0  0  0  0  0  0  0  0
    8.9282   -3.5000    0.0000 C   0  0  0  0  0  0  0  0  0  0  0  0
    9.7942    2.0000    0.0000 C   0  0  0  0  0  0  0  0  0  0  0  0
    4.5981   -5.0000    0.0000 C   0  0  0  0  0  0  0  0  0  0  0  0
    5.4641    0.5000    0.0000 C   0  0  0  0  0  0  0  0  0  0  0  0
   11.5263   -1.0000    0.0000 C   0  0  0  0  0  0  0  0  0  0  0  0
    5.4641    2.5000    0.0000 C   0  0  0  0  0  0  0  0  0  0  0  0
    9.7942   -4.0000    0.0000 C   0  0  0  0  0  0  0  0  0  0  0  0
    2.8660   -2.0000    0.0000 C   0  0  0  0  0  0  0  0  0  0  0  0
    3.7320   -5.5000    0.0000 C   0  0  0  0  0  0  0  0  0  0  0  0
    8.9282    2.5000    0.0000 C   0  0  0  0  0  0  0  0  0  0  0  0
   10.6603    2.5000    0.0000 C   0  0  0  0  0  0  0  0  0  0  0  0
    5.4641    3.5000    0.0000 C   0  0  0  0  0  0  0  0  0  0  0  0
    8.9282    3.5000    0.0000 C   0  0  0  0  0  0  0  0  0  0  0  0
   10.6603    3.5000    0.0000 C   0  0  0  0  0  0  0  0  0  0  0  0
    2.0000   -2.5000    0.0000 C   0  0  0  0  0  0  0  0  0  0  0  0
    9.7942    4.0000    0.0000 C   0  0  0  0  0  0  0  0  0  0  0  0
   10.6603    5.5000    0.0000 C   0  0  0  0  0  0  0  0  0  0  0  0
    7.5252   -1.3100    0.0000 H   0  0  0  0  0  0  0  0  0  0  0  0
    6.6592   -0.1900    0.0000 H   0  0  0  0  0  0  0  0  0  0  0  0
    8.9282   -1.1200    0.0000 H   0  0  0  0  0  0  0  0  0  0  0  0
    7.7331   -2.8100    0.0000 H   0  0  0  0  0  0  0  0  0  0  0  0
    7.1962   -4.1200    0.0000 H   0  0  0  0  0  0  0  0  0  0  0  0
    7.1962    1.1200    0.0000 H   0  0  0  0  0  0  0  0  0  0  0  0
    5.7932   -4.3100    0.0000 H   0  0  0  0  0  0  0  0  0  0  0  0
    5.4641   -4.1200    0.0000 H   0  0  0  0  0  0  0  0  0  0  0  0
    5.4641   -1.8800    0.0000 H   0  0  0  0  0  0  0  0  0  0  0  0
    9.4651    0.1900    0.0000 H   0  0  0  0  0  0  0  0  0  0  0  0
    5.7196    1.1077    0.0000 H   0  0  0  0  0  0  0  0  0  0  0  0
    6.1181    0.4174    0.0000 H   0  0  0  0  0  0  0  0  0  0  0  0
    4.9966   -1.5250    0.0000 H   0  0  0  0  0  0  0  0  0  0  0  0
    4.1996   -1.5250    0.0000 H   0  0  0  0  0  0  0  0  0  0  0  0
    6.8671   -5.3100    0.0000 H   0  0  0  0  0  0  0  0  0  0  0  0
    6.0841    0.5000    0.0000 H   0  0  0  0  0  0  0  0  0  0  0  0
    5.4641    1.1200    0.0000 H   0  0  0  0  0  0  0  0  0  0  0  0
    4.8441    0.5000    0.0000 H   0  0  0  0  0  0  0  0  0  0  0  0
   11.2163   -1.5369    0.0000 H   0  0  0  0  0  0  0  0  0  0  0  0
   12.0632   -1.3100    0.0000 H   0  0  0  0  0  0  0  0  0  0  0  0
   11.8363   -0.4631    0.0000 H   0  0  0  0  0  0  0  0  0  0  0  0
    9.4842   -4.5369    0.0000 H   0  0  0  0  0  0  0  0  0  0  0  0
   10.3312   -4.3100    0.0000 H   0  0  0  0  0  0  0  0  0  0  0  0
   10.1042   -3.4631    0.0000 H   0  0  0  0  0  0  0  0  0  0  0  0
    3.4220   -4.9631    0.0000 H   0  0  0  0  0  0  0  0  0  0  0  0
    3.1951   -5.8100    0.0000 H   0  0  0  0  0  0  0  0  0  0  0  0
    4.0420   -6.0369    0.0000 H   0  0  0  0  0  0  0  0  0  0  0  0
    8.3913    2.1900    0.0000 H   0  0  0  0  0  0  0  0  0  0  0  0
   11.1972    2.1900    0.0000 H   0  0  0  0  0  0  0  0  0  0  0  0
    6.0841    3.5000    0.0000 H   0  0  0  0  0  0  0  0  0  0  0  0
    5.4641    4.1200    0.0000 H   0  0  0  0  0  0  0  0  0  0  0  0
    4.8441    3.5000    0.0000 H   0  0  0  0  0  0  0  0  0  0  0  0
    8.3913    3.8100    0.0000 H   0  0  0  0  0  0  0  0  0  0  0  0
   11.1972    3.8100    0.0000 H   0  0  0  0  0  0  0  0  0  0  0  0
    1.6900   -1.9631    0.0000 H   0  0  0  0  0  0  0  0  0  0  0  0
    1.4631   -2.8100    0.0000 H   0  0  0  0  0  0  0  0  0  0  0  0
    2.3100   -3.0369    0.0000 H   0  0  0  0  0  0  0  0  0  0  0  0
   10.9703    4.9631    0.0000 H   0  0  0  0  0  0  0  0  0  0  0  0
   11.1972    5.8100    0.0000 H   0  0  0  0  0  0  0  0  0  0  0  0
   10.3503    6.0369    0.0000 H   0  0  0  0  0  0  0  0  0  0  0  0
 19  1  1  1  0  0  0
 22  1  1  6  0  0  0
  2 22  1  0  0  0  0
  2 27  1  0  0  0  0
  3 24  1  0  0  0  0
  3 28  1  0  0  0  0
 20  4  1  6  0  0  0
  4 31  1  0  0  0  0
 21  5  1  6  0  0  0
  5 32  1  0  0  0  0
 23  6  1  6  0  0  0
  6 33  1  0  0  0  0
 26  7  1  6  0  0  0
  7 35  1  0  0  0  0
 25  8  1  1  0  0  0
  8 64  1  0  0  0  0
 28  9  1  1  0  0  0
  9 34  1  0  0  0  0
 10 29  1  0  0  0  0
 10 38  1  0  0  0  0
 11 30  1  0  0  0  0
 11 40  1  0  0  0  0
 12 31  2  0  0  0  0
 13 32  2  0  0  0  0
 14 33  2  0  0  0  0
 15 35  2  0  0  0  0
 16 38  2  0  0  0  0
 17 40  2  0  0  0  0
 18 48  1  0  0  0  0
 18 49  1  0  0  0  0
 19 20  1  0  0  0  0
 19 21  1  0  0  0  0
 19 50  1  0  0  0  0
 20 24  1  0  0  0  0
 20 51  1  0  0  0  0
 21 28  1  0  0  0  0
 21 52  1  0  0  0  0
 22 23  1  0  0  0  0
 22 53  1  0  0  0  0
 23 25  1  0  0  0  0
 23 54  1  0  0  0  0
 24 29  1  1  0  0  0
 24 55  1  0  0  0  0
 25 26  1  0  0  0  0
 25 56  1  0  0  0  0
 26 27  1  0  0  0  0
 26 57  1  0  0  0  0
 27 30  1  1  0  0  0
 27 58  1  0  0  0  0
 28 59  1  0  0  0  0
 29 60  1  0  0  0  0
 29 61  1  0  0  0  0
 30 62  1  0  0  0  0
 30 63  1  0  0  0  0
 31 36  1  0  0  0  0
 32 37  1  0  0  0  0
 33 39  1  0  0  0  0
 34 42  2  0  0  0  0
 34 43  1  0  0  0  0
 35 41  1  0  0  0  0
 36 65  1  0  0  0  0
 36 66  1  0  0  0  0
 36 67  1  0  0  0  0
 37 68  1  0  0  0  0
 37 69  1  0  0  0  0
 37 70  1  0  0  0  0
 38 44  1  0  0  0  0
 39 71  1  0  0  0  0
 39 72  1  0  0  0  0
 39 73  1  0  0  0  0
 40 47  1  0  0  0  0
 41 74  1  0  0  0  0
 41 75  1  0  0  0  0
 41 76  1  0  0  0  0
 42 45  1  0  0  0  0
 42 77  1  0  0  0  0
 43 46  2  0  0  0  0
 43 78  1  0  0  0  0
 44 79  1  0  0  0  0
 44 80  1  0  0  0  0
 44 81  1  0  0  0  0
 45 48  2  0  0  0  0
 45 82  1  0  0  0  0
 46 48  1  0  0  0  0
 46 83  1  0  0  0  0
 47 84  1  0  0  0  0
 47 85  1  0  0  0  0
 47 86  1  0  0  0  0
 49 87  1  0  0  0  0
 49 88  1  0  0  0  0
 49 89  1  0  0  0  0
M  END
> <PUBCHEM_COMPOUND_CID>
11216201

> <PUBCHEM_COMPOUND_CANONICALIZED>
1

> <PUBCHEM_CACTVS_COMPLEXITY>
1170

> <PUBCHEM_CACTVS_HBOND_ACCEPTOR>
18

> <PUBCHEM_CACTVS_HBOND_DONOR>
1

> <PUBCHEM_CACTVS_ROTATABLE_BOND>
19

> <PUBCHEM_CACTVS_SUBSKEYS>
AAADcfB4PgAAAAAAAAAAAAAAAAAAAAAAAAA0SIAAAAAAAAABAAAAGgAACAAACBSwkAMyDoAABgCIACDSCAACCAAgIAAIiAAGCIgdNiKEMRqieCClwBEPqAfAYAwAAQAAAAAAAAACAAAAAAAAAAAAAAAAAA==

> <PUBCHEM_IUPAC_OPENEYE_NAME>
[(2R,3S,4S,5R,6R)-3,5-diacetoxy-6-[(2R,3R,4S,5R,6S)-3,5-diacetoxy-2-(acetoxymethyl)-6-(4-methoxyphenoxy)tetrahydropyran-4-yl]oxy-4-hydroxy-tetrahydropyran-2-yl]methyl acetate

> <PUBCHEM_IUPAC_CAS_NAME>
acetic acid [(2R,3S,4S,5R,6R)-3,5-diacetyloxy-6-[[(2R,3R,4S,5R,6S)-3,5-diacetyloxy-2-(acetyloxymethyl)-6-(4-methoxyphenoxy)-4-oxanyl]oxy]-4-hydroxy-2-oxanyl]methyl ester

> <PUBCHEM_IUPAC_NAME_MARKUP>
[(2<I>R</I>,3<I>S</I>,4<I>S</I>,5<I>R</I>,6<I>R</I>)-3,5-diacetyloxy-6-[(2<I>R</I>,3<I>R</I>,4<I>S</I>,5<I>R</I>,6<I>S</I>)-3,5-diacetyloxy-2-(acetyloxymethyl)-6-(4-methoxyphenoxy)oxan-4-yl]oxy-4-hydroxyoxan-2-yl]methyl acetate

> <PUBCHEM_IUPAC_NAME>
[(2R,3S,4S,5R,6R)-3,5-diacetyloxy-6-[(2R,3R,4S,5R,6S)-3,5-diacetyloxy-2-(acetyloxymethyl)-6-(4-methoxyphenoxy)oxan-4-yl]oxy-4-hydroxyoxan-2-yl]methyl acetate

> <PUBCHEM_IUPAC_SYSTEMATIC_NAME>
[(2R,3S,4S,5R,6R)-3,5-diacetyloxy-6-[(2R,3R,4S,5R,6S)-3,5-diacetyloxy-2-(acetyloxymethyl)-6-(4-methoxyphenoxy)oxan-4-yl]oxy-4-oxidanyl-oxan-2-yl]methyl ethanoate

> <PUBCHEM_IUPAC_TRADITIONAL_NAME>
acetic acid [(2R,3S,4S,5R,6R)-3,5-diacetoxy-6-[(2R,3R,4S,5R,6S)-3,5-diacetoxy-2-(acetoxymethyl)-6-(4-methoxyphenoxy)tetrahydropyran-4-yl]oxy-4-hydroxy-tetrahydropyran-2-yl]methyl ester

> <PUBCHEM_IUPAC_INCHI>
InChI=1S/C31H40O18/c1-14(32)40-12-22-25(42-16(3)34)24(38)27(44-18(5)36)30(47-22)49-28-26(43-17(4)35)23(13-41-15(2)33)48-31(29(28)45-19(6)37)46-21-10-8-20(39-7)9-11-21/h8-11,22-31,38H,12-13H2,1-7H3/t22-,23-,24+,25-,26-,27-,28+,29-,30-,31-/m1/s1

> <PUBCHEM_IUPAC_INCHIKEY>
GTFBDCZIHFNHSU-SETUDCRZSA-N

> <PUBCHEM_XLOGP3_AA>
0.5

> <PUBCHEM_EXACT_MASS>
700.22146442

> <PUBCHEM_MOLECULAR_FORMULA>
C31H40O18

> <PUBCHEM_MOLECULAR_WEIGHT>
700.6

> <PUBCHEM_OPENEYE_CAN_SMILES>
CC(=O)OCC1C(C(C(C(O1)OC2C(C(OC(C2OC(=O)C)OC3=CC=C(C=C3)OC)COC(=O)C)OC(=O)C)OC(=O)C)O)OC(=O)C

> <PUBCHEM_OPENEYE_ISO_SMILES>
CC(=O)OC[C@@H]1[C@H]([C@@H]([C@H]([C@H](O1)O[C@H]2[C@@H]([C@H](O[C@H]([C@@H]2OC(=O)C)OC3=CC=C(C=C3)OC)COC(=O)C)OC(=O)C)OC(=O)C)O)OC(=O)C

> <PUBCHEM_CACTVS_TPSA>
224

> <PUBCHEM_MONOISOTOPIC_WEIGHT>
700.22146442

> <PUBCHEM_TOTAL_CHARGE>
0

> <PUBCHEM_HEAVY_ATOM_COUNT>
49

> <PUBCHEM_ATOM_DEF_STEREO_COUNT>
10

> <PUBCHEM_ATOM_UDEF_STEREO_COUNT>
0

> <PUBCHEM_BOND_DEF_STEREO_COUNT>
0

> <PUBCHEM_BOND_UDEF_STEREO_COUNT>
0

> <PUBCHEM_ISOTOPIC_ATOM_COUNT>
0

> <PUBCHEM_COMPONENT_COUNT>
1

> <PUBCHEM_CACTVS_TAUTO_COUNT>
-1

> <PUBCHEM_COORDINATE_TYPE>
1
5
255

> <PUBCHEM_BONDANNOTATIONS>
19  1  5
22  1  6
24  29  5
27  30  5
34  42  8
34  43  8
20  4  6
42  45  8
43  46  8
45  48  8
46  48  8
21  5  6
23  6  6
26  7  6
25  8  5
28  9  5

$$$$
