 
  -OEChem-10192104002D

 55 59  0     1  0  0  0  0  0999 V2000
    5.7436    3.0049    0.0000 O   0  0  0  0  0  0  0  0  0  0  0  0
    7.9906    3.0049    0.0000 O   0  0  0  0  0  0  0  0  0  0  0  0
    6.8671    0.5961    0.0000 O   0  0  0  0  0  0  0  0  0  0  0  0
    8.3455    3.5971    0.0000 O   0  0  0  0  0  0  0  0  0  0  0  0
    5.1350    0.5961    0.0000 O   0  0  0  0  0  0  0  0  0  0  0  0
    6.8671   -1.4039    0.0000 O   0  0  0  0  0  0  0  0  0  0  0  0
    5.1350   -2.4039    0.0000 O   0  0  0  0  0  0  0  0  0  0  0  0
    3.4030   -1.4039    0.0000 O   0  0  0  0  0  0  0  0  0  0  0  0
    2.5369    0.0961    0.0000 O   0  0  0  0  0  0  0  0  0  0  0  0
    5.9661    2.0300    0.0000 C   0  0  3  0  0  0  0  0  0  0  0  0
    6.3671    3.7867    0.0000 C   0  0  3  0  0  0  0  0  0  0  0  0
    6.8671    1.5961    0.0000 C   0  0  3  0  0  0  0  0  0  0  0  0
    6.5881    2.8122    0.0000 C   0  0  0  0  0  0  0  0  0  0  0  0
    7.7680    2.0300    0.0000 C   0  0  3  0  0  0  0  0  0  0  0  0
    7.3671    3.7867    0.0000 C   0  0  1  0  0  0  0  0  0  0  0  0
    8.5673    2.6254    0.0000 C   0  0  0  0  0  0  0  0  0  0  0  0
    6.0010    0.0961    0.0000 C   0  0  3  0  0  0  0  0  0  0  0  0
    6.0010   -0.9039    0.0000 C   0  0  3  0  0  0  0  0  0  0  0  0
    5.1350   -1.4039    0.0000 C   0  0  3  0  0  0  0  0  0  0  0  0
    4.2690   -0.9039    0.0000 C   0  0  3  0  0  0  0  0  0  0  0  0
    4.2690    0.0961    0.0000 C   0  0  3  0  0  0  0  0  0  0  0  0
    3.4030    0.5961    0.0000 C   0  0  0  0  0  0  0  0  0  0  0  0
    6.8671   -2.4039    0.0000 C   0  0  0  0  0  0  0  0  0  0  0  0
    7.7331   -2.9039    0.0000 C   0  0  0  0  0  0  0  0  0  0  0  0
    8.5991   -2.4039    0.0000 C   0  0  0  0  0  0  0  0  0  0  0  0
    7.7331   -3.9039    0.0000 C   0  0  0  0  0  0  0  0  0  0  0  0
    9.4651   -2.9039    0.0000 C   0  0  0  0  0  0  0  0  0  0  0  0
    8.5991   -4.4039    0.0000 C   0  0  0  0  0  0  0  0  0  0  0  0
    9.4651   -3.9039    0.0000 C   0  0  0  0  0  0  0  0  0  0  0  0
    5.4814    1.6434    0.0000 H   0  0  0  0  0  0  0  0  0  0  0  0
    6.0981    4.3453    0.0000 H   0  0  0  0  0  0  0  0  0  0  0  0
    7.3920    1.2662    0.0000 H   0  0  0  0  0  0  0  0  0  0  0  0
    6.9749    2.3276    0.0000 H   0  0  0  0  0  0  0  0  0  0  0  0
    7.1468    3.0809    0.0000 H   0  0  0  0  0  0  0  0  0  0  0  0
    8.0892    1.4997    0.0000 H   0  0  0  0  0  0  0  0  0  0  0  0
    7.4483    4.6328    0.0000 H   0  0  0  0  0  0  0  0  0  0  0  0
    8.8654    2.0818    0.0000 H   0  0  0  0  0  0  0  0  0  0  0  0
    9.1468    2.8456    0.0000 H   0  0  0  0  0  0  0  0  0  0  0  0
    6.0010    0.7161    0.0000 H   0  0  0  0  0  0  0  0  0  0  0  0
    6.0010   -1.5239    0.0000 H   0  0  0  0  0  0  0  0  0  0  0  0
    4.5981   -1.7139    0.0000 H   0  0  0  0  0  0  0  0  0  0  0  0
    4.2690   -1.5239    0.0000 H   0  0  0  0  0  0  0  0  0  0  0  0
    4.2690    0.7161    0.0000 H   0  0  0  0  0  0  0  0  0  0  0  0
    3.8015    1.0710    0.0000 H   0  0  0  0  0  0  0  0  0  0  0  0
    3.0044    1.0710    0.0000 H   0  0  0  0  0  0  0  0  0  0  0  0
    4.5981   -2.7139    0.0000 H   0  0  0  0  0  0  0  0  0  0  0  0
    3.4030   -2.0239    0.0000 H   0  0  0  0  0  0  0  0  0  0  0  0
    6.2565   -2.2962    0.0000 H   0  0  0  0  0  0  0  0  0  0  0  0
    6.6550   -2.9865    0.0000 H   0  0  0  0  0  0  0  0  0  0  0  0
    2.0000    0.4061    0.0000 H   0  0  0  0  0  0  0  0  0  0  0  0
    8.5991   -1.7839    0.0000 H   0  0  0  0  0  0  0  0  0  0  0  0
    7.1962   -4.2139    0.0000 H   0  0  0  0  0  0  0  0  0  0  0  0
   10.0021   -2.5939    0.0000 H   0  0  0  0  0  0  0  0  0  0  0  0
    8.5991   -5.0239    0.0000 H   0  0  0  0  0  0  0  0  0  0  0  0
   10.0021   -4.2139    0.0000 H   0  0  0  0  0  0  0  0  0  0  0  0
  1 10  1  0  0  0  0
  1 11  1  0  0  0  0
  2 14  1  0  0  0  0
  2 15  1  0  0  0  0
  3 12  1  0  0  0  0
  3 17  1  0  0  0  0
  4 15  1  0  0  0  0
  4 16  1  0  0  0  0
  5 17  1  0  0  0  0
  5 21  1  0  0  0  0
  6 18  1  0  0  0  0
  6 23  1  0  0  0  0
  7 19  1  0  0  0  0
  7 46  1  0  0  0  0
  8 20  1  0  0  0  0
  8 47  1  0  0  0  0
  9 22  1  0  0  0  0
  9 50  1  0  0  0  0
 10 12  1  0  0  0  0
 10 13  1  0  0  0  0
 10 30  1  0  0  0  0
 11 13  1  0  0  0  0
 11 15  1  0  0  0  0
 11 31  1  0  0  0  0
 12 14  1  0  0  0  0
 12 32  1  0  0  0  0
 13 33  1  0  0  0  0
 13 34  1  0  0  0  0
 14 16  1  0  0  0  0
 14 35  1  0  0  0  0
 15 36  1  1  0  0  0
 16 37  1  0  0  0  0
 16 38  1  0  0  0  0
 17 18  1  0  0  0  0
 17 39  1  0  0  0  0
 18 19  1  0  0  0  0
 18 40  1  0  0  0  0
 19 20  1  0  0  0  0
 19 41  1  0  0  0  0
 20 21  1  0  0  0  0
 20 42  1  0  0  0  0
 21 22  1  0  0  0  0
 21 43  1  0  0  0  0
 22 44  1  0  0  0  0
 22 45  1  0  0  0  0
 23 24  1  0  0  0  0
 23 48  1  0  0  0  0
 23 49  1  0  0  0  0
 24 25  2  0  0  0  0
 24 26  1  0  0  0  0
 25 27  1  0  0  0  0
 25 51  1  0  0  0  0
 26 28  2  0  0  0  0
 26 52  1  0  0  0  0
 27 29  2  0  0  0  0
 27 53  1  0  0  0  0
 28 29  1  0  0  0  0
 28 54  1  0  0  0  0
 29 55  1  0  0  0  0
M  END
> <PUBCHEM_COMPOUND_CID>
137434672

> <PUBCHEM_COMPOUND_CANONICALIZED>
1

> <PUBCHEM_CACTVS_COMPLEXITY>
556

> <PUBCHEM_CACTVS_HBOND_ACCEPTOR>
9

> <PUBCHEM_CACTVS_HBOND_DONOR>
3

> <PUBCHEM_CACTVS_ROTATABLE_BOND>
6

> <PUBCHEM_CACTVS_SUBSKEYS>
AAADceB4PAAAAAAAAAAAAAAAAABIASAAAAA0QAAABIASAAABAAAAGgAACAAADBSwmAMwCIAABgCAAiBCAAACAAAgAAAIiAAACIgZNiKAMRiicAAlwAEPqAfA4CwOAAAAAAAAAAAAAAAAAAAAAAAAAAAAAA==

> <PUBCHEM_IUPAC_OPENEYE_NAME>
5-benzyloxy-2-(hydroxymethyl)-6-[[(1R)-3,8,9-trioxatricyclo[4.2.1.12,4]decan-5-yl]oxy]tetrahydropyran-3,4-diol

> <PUBCHEM_IUPAC_CAS_NAME>
2-(hydroxymethyl)-5-phenylmethoxy-6-[[(1R)-3,8,9-trioxatricyclo[4.2.1.12,4]decan-5-yl]oxy]oxane-3,4-diol

> <PUBCHEM_IUPAC_NAME_MARKUP>
2-(hydroxymethyl)-5-phenylmethoxy-6-[[(1<I>R</I>)-3,8,9-trioxatricyclo[4.2.1.1<SUP>2,4</SUP>]decan-5-yl]oxy]oxane-3,4-diol

> <PUBCHEM_IUPAC_NAME>
2-(hydroxymethyl)-5-phenylmethoxy-6-[[(1R)-3,8,9-trioxatricyclo[4.2.1.12,4]decan-5-yl]oxy]oxane-3,4-diol

> <PUBCHEM_IUPAC_SYSTEMATIC_NAME>
2-(hydroxymethyl)-5-phenylmethoxy-6-[[(1R)-3,8,9-trioxatricyclo[4.2.1.12,4]decan-5-yl]oxy]oxane-3,4-diol

> <PUBCHEM_IUPAC_TRADITIONAL_NAME>
5-benzoxy-2-methylol-6-[[(1R)-3,8,9-trioxatricyclo[4.2.1.12,4]decan-5-yl]oxy]tetrahydropyran-3,4-diol

> <PUBCHEM_IUPAC_INCHI>
InChI=1S/C20H26O9/c21-7-13-15(22)16(23)18(24-8-10-4-2-1-3-5-10)20(27-13)29-17-11-6-12(26-11)19-25-9-14(17)28-19/h1-5,11-23H,6-9H2/t11?,12?,13?,14?,15?,16?,17?,18?,19-,20?/m1/s1

> <PUBCHEM_IUPAC_INCHIKEY>
CNYZUNNMDSWLNP-RIMASXSXSA-N

> <PUBCHEM_XLOGP3_AA>
-0.4

> <PUBCHEM_EXACT_MASS>
410.15768240

> <PUBCHEM_MOLECULAR_FORMULA>
C20H26O9

> <PUBCHEM_MOLECULAR_WEIGHT>
410.4

> <PUBCHEM_OPENEYE_CAN_SMILES>
C1C2C(C3COC(C1O2)O3)OC4C(C(C(C(O4)CO)O)O)OCC5=CC=CC=C5

> <PUBCHEM_OPENEYE_ISO_SMILES>
C1C2[C@@H]3OCC(O3)C(C1O2)OC4C(C(C(C(O4)CO)O)O)OCC5=CC=CC=C5

> <PUBCHEM_CACTVS_TPSA>
116

> <PUBCHEM_MONOISOTOPIC_WEIGHT>
410.15768240

> <PUBCHEM_TOTAL_CHARGE>
0

> <PUBCHEM_HEAVY_ATOM_COUNT>
29

> <PUBCHEM_ATOM_DEF_STEREO_COUNT>
1

> <PUBCHEM_ATOM_UDEF_STEREO_COUNT>
9

> <PUBCHEM_BOND_DEF_STEREO_COUNT>
0

> <PUBCHEM_BOND_UDEF_STEREO_COUNT>
0

> <PUBCHEM_ISOTOPIC_ATOM_COUNT>
0

> <PUBCHEM_COMPONENT_COUNT>
1

> <PUBCHEM_CACTVS_TAUTO_COUNT>
-1

> <PUBCHEM_COORDINATE_TYPE>
1
5
255

> <PUBCHEM_BONDANNOTATIONS>
10  13  3
11  13  3
14  16  3
15  36  5
21  22  3
24  25  8
24  26  8
25  27  8
26  28  8
27  29  8
28  29  8
12  3  3
17  3  3
18  6  3
19  7  3
20  8  3

$$$$
