 
  -OEChem-10192104122D

 77 81  0     1  0  0  0  0  0999 V2000
    4.5768   -1.4514    0.0000 P   0  0  0  0  0  0  0  0  0  0  0  0
    7.4682    0.2042    0.0000 O   0  0  0  0  0  0  0  0  0  0  0  0
    5.5714   -1.5559    0.0000 O   0  0  0  0  0  0  0  0  0  0  0  0
    8.7414   -1.4514    0.0000 O   0  0  0  0  0  0  0  0  0  0  0  0
    3.5823   -1.3468    0.0000 O   0  0  0  0  0  0  0  0  0  0  0  0
    4.4723   -2.4459    0.0000 O   0  0  0  0  0  0  0  0  0  0  0  0
    8.3912    1.7920    0.0000 O   0  0  0  0  0  0  0  0  0  0  0  0
    4.6814   -0.4568    0.0000 O   0  0  0  0  0  0  0  0  0  0  0  0
    6.6591    4.7920    0.0000 O   0  0  0  0  0  0  0  0  0  0  0  0
    6.6591    1.7920    0.0000 N   0  0  0  0  0  0  0  0  0  0  0  0
    7.5252    3.2920    0.0000 N   0  0  0  0  0  0  0  0  0  0  0  0
    6.1591   -0.7469    0.0000 C   0  0  2  0  0  0  0  0  0  0  0  0
    7.1591   -0.7469    0.0000 C   0  0  1  0  0  0  0  0  0  0  0  0
    5.8501    0.2042    0.0000 C   0  0  0  0  0  0  0  0  0  0  0  0
    6.6591    0.7920    0.0000 C   0  0  1  0  0  0  0  0  0  0  0  0
    7.7469   -1.5559    0.0000 C   0  0  0  0  0  0  0  0  0  0  0  0
    9.3292   -2.2604    0.0000 C   0  0  0  0  0  0  0  0  0  0  0  0
    5.7931    2.2920    0.0000 C   0  0  0  0  0  0  0  0  0  0  0  0
    7.5252    2.2920    0.0000 C   0  0  0  0  0  0  0  0  0  0  0  0
    9.9170   -3.0694    0.0000 C   0  0  0  0  0  0  0  0  0  0  0  0
   10.1382   -1.6726    0.0000 C   0  0  0  0  0  0  0  0  0  0  0  0
    8.5202   -2.8482    0.0000 C   0  0  0  0  0  0  0  0  0  0  0  0
    5.7931    3.2920    0.0000 C   0  0  0  0  0  0  0  0  0  0  0  0
    6.6591    3.7920    0.0000 C   0  0  0  0  0  0  0  0  0  0  0  0
    9.5103   -3.9830    0.0000 C   0  0  0  0  0  0  0  0  0  0  0  0
   11.0518   -2.0793    0.0000 C   0  0  0  0  0  0  0  0  0  0  0  0
    7.6067   -2.4414    0.0000 C   0  0  0  0  0  0  0  0  0  0  0  0
   10.9115   -2.9649    0.0000 C   0  0  0  0  0  0  0  0  0  0  0  0
   10.0337   -0.6781    0.0000 C   0  0  0  0  0  0  0  0  0  0  0  0
    8.6247   -3.8427    0.0000 C   0  0  0  0  0  0  0  0  0  0  0  0
    4.9271    3.7920    0.0000 C   0  0  0  0  0  0  0  0  0  0  0  0
   10.0981   -4.7920    0.0000 C   0  0  0  0  0  0  0  0  0  0  0  0
   11.8608   -1.4916    0.0000 C   0  0  0  0  0  0  0  0  0  0  0  0
    6.7976   -3.0292    0.0000 C   0  0  0  0  0  0  0  0  0  0  0  0
   11.4993   -3.7739    0.0000 C   0  0  0  0  0  0  0  0  0  0  0  0
   10.8427   -0.0903    0.0000 C   0  0  0  0  0  0  0  0  0  0  0  0
    7.8157   -4.4305    0.0000 C   0  0  0  0  0  0  0  0  0  0  0  0
   11.0926   -4.6874    0.0000 C   0  0  0  0  0  0  0  0  0  0  0  0
   11.7563   -0.4970    0.0000 C   0  0  0  0  0  0  0  0  0  0  0  0
    6.9022   -4.0237    0.0000 C   0  0  0  0  0  0  0  0  0  0  0  0
    2.9945   -2.1559    0.0000 C   0  0  0  0  0  0  0  0  0  0  0  0
    3.5588   -2.8526    0.0000 C   0  0  0  0  0  0  0  0  0  0  0  0
    2.0000   -2.0513    0.0000 C   0  0  0  0  0  0  0  0  0  0  0  0
    3.4542   -3.8472    0.0000 C   0  0  0  0  0  0  0  0  0  0  0  0
    6.4406   -1.2993    0.0000 H   0  0  0  0  0  0  0  0  0  0  0  0
    7.7715   -0.6499    0.0000 H   0  0  0  0  0  0  0  0  0  0  0  0
    5.5401    0.7411    0.0000 H   0  0  0  0  0  0  0  0  0  0  0  0
    5.2837   -0.0480    0.0000 H   0  0  0  0  0  0  0  0  0  0  0  0
    7.2116    1.0734    0.0000 H   0  0  0  0  0  0  0  0  0  0  0  0
    7.1897   -1.8277    0.0000 H   0  0  0  0  0  0  0  0  0  0  0  0
    7.9178   -2.1519    0.0000 H   0  0  0  0  0  0  0  0  0  0  0  0
    5.2562    1.9820    0.0000 H   0  0  0  0  0  0  0  0  0  0  0  0
    8.0621    3.6020    0.0000 H   0  0  0  0  0  0  0  0  0  0  0  0
    8.8937   -4.0478    0.0000 H   0  0  0  0  0  0  0  0  0  0  0  0
   11.1166   -2.6959    0.0000 H   0  0  0  0  0  0  0  0  0  0  0  0
    7.5419   -1.8248    0.0000 H   0  0  0  0  0  0  0  0  0  0  0  0
   11.1637   -2.3985    0.0000 H   0  0  0  0  0  0  0  0  0  0  0  0
    9.4673   -0.4259    0.0000 H   0  0  0  0  0  0  0  0  0  0  0  0
    9.1911   -4.0949    0.0000 H   0  0  0  0  0  0  0  0  0  0  0  0
    5.2371    4.3289    0.0000 H   0  0  0  0  0  0  0  0  0  0  0  0
    4.3902    4.1020    0.0000 H   0  0  0  0  0  0  0  0  0  0  0  0
    4.6171    3.2550    0.0000 H   0  0  0  0  0  0  0  0  0  0  0  0
    9.8459   -5.3584    0.0000 H   0  0  0  0  0  0  0  0  0  0  0  0
   12.4272   -1.7437    0.0000 H   0  0  0  0  0  0  0  0  0  0  0  0
    6.2312   -2.7770    0.0000 H   0  0  0  0  0  0  0  0  0  0  0  0
   12.1159   -3.7091    0.0000 H   0  0  0  0  0  0  0  0  0  0  0  0
   10.7779    0.5263    0.0000 H   0  0  0  0  0  0  0  0  0  0  0  0
    7.8805   -5.0471    0.0000 H   0  0  0  0  0  0  0  0  0  0  0  0
   11.4570   -5.1890    0.0000 H   0  0  0  0  0  0  0  0  0  0  0  0
   12.2579   -0.1326    0.0000 H   0  0  0  0  0  0  0  0  0  0  0  0
    6.4006   -4.3882    0.0000 H   0  0  0  0  0  0  0  0  0  0  0  0
    3.2467   -2.7222    0.0000 H   0  0  0  0  0  0  0  0  0  0  0  0
    3.0572   -2.4882    0.0000 H   0  0  0  0  0  0  0  0  0  0  0  0
    1.7478   -1.4849    0.0000 H   0  0  0  0  0  0  0  0  0  0  0  0
    1.6356   -2.5529    0.0000 H   0  0  0  0  0  0  0  0  0  0  0  0
    2.8878   -4.0993    0.0000 H   0  0  0  0  0  0  0  0  0  0  0  0
    3.9558   -4.2116    0.0000 H   0  0  0  0  0  0  0  0  0  0  0  0
  1  3  1  0  0  0  0
  1  5  1  0  0  0  0
  1  6  1  0  0  0  0
  1  8  2  0  0  0  0
  2 13  1  0  0  0  0
  2 15  1  0  0  0  0
 12  3  1  1  0  0  0
  4 16  1  0  0  0  0
  4 17  1  0  0  0  0
  5 41  1  0  0  0  0
  6 42  1  0  0  0  0
  7 19  2  0  0  0  0
  9 24  2  0  0  0  0
 15 10  1  6  0  0  0
 10 18  1  0  0  0  0
 10 19  1  0  0  0  0
 11 19  1  0  0  0  0
 11 24  1  0  0  0  0
 11 53  1  0  0  0  0
 12 13  1  0  0  0  0
 12 14  1  0  0  0  0
 12 45  1  0  0  0  0
 13 16  1  6  0  0  0
 13 46  1  0  0  0  0
 14 15  1  0  0  0  0
 14 47  1  0  0  0  0
 14 48  1  0  0  0  0
 15 49  1  0  0  0  0
 16 50  1  0  0  0  0
 16 51  1  0  0  0  0
 17 20  1  0  0  0  0
 17 21  1  0  0  0  0
 17 22  1  0  0  0  0
 18 23  2  0  0  0  0
 18 52  1  0  0  0  0
 20 25  2  0  0  0  0
 20 28  1  0  0  0  0
 21 26  2  0  0  0  0
 21 29  1  0  0  0  0
 22 27  2  0  0  0  0
 22 30  1  0  0  0  0
 23 24  1  0  0  0  0
 23 31  1  0  0  0  0
 25 32  1  0  0  0  0
 25 54  1  0  0  0  0
 26 33  1  0  0  0  0
 26 55  1  0  0  0  0
 27 34  1  0  0  0  0
 27 56  1  0  0  0  0
 28 35  2  0  0  0  0
 28 57  1  0  0  0  0
 29 36  2  0  0  0  0
 29 58  1  0  0  0  0
 30 37  2  0  0  0  0
 30 59  1  0  0  0  0
 31 60  1  0  0  0  0
 31 61  1  0  0  0  0
 31 62  1  0  0  0  0
 32 38  2  0  0  0  0
 32 63  1  0  0  0  0
 33 39  2  0  0  0  0
 33 64  1  0  0  0  0
 34 40  2  0  0  0  0
 34 65  1  0  0  0  0
 35 38  1  0  0  0  0
 35 66  1  0  0  0  0
 36 39  1  0  0  0  0
 36 67  1  0  0  0  0
 37 40  1  0  0  0  0
 37 68  1  0  0  0  0
 38 69  1  0  0  0  0
 39 70  1  0  0  0  0
 40 71  1  0  0  0  0
 41 43  2  0  0  0  0
 41 72  1  0  0  0  0
 42 44  2  0  0  0  0
 42 73  1  0  0  0  0
 43 74  1  0  0  0  0
 43 75  1  0  0  0  0
 44 76  1  0  0  0  0
 44 77  1  0  0  0  0
M  END
> <PUBCHEM_COMPOUND_CID>
11365541

> <PUBCHEM_COMPOUND_CANONICALIZED>
1

> <PUBCHEM_CACTVS_COMPLEXITY>
1050

> <PUBCHEM_CACTVS_HBOND_ACCEPTOR>
8

> <PUBCHEM_CACTVS_HBOND_DONOR>
1

> <PUBCHEM_CACTVS_ROTATABLE_BOND>
13

> <PUBCHEM_CACTVS_SUBSKEYS>
AAADcfB/PAIAAAAAAAAAAAAAAAAAASAAAAAwYMEAAAAAAAABUAAAHgAQACAADFThmAYzAIPABRCIQiFWUICCAAAgAAAIiAEICMiJJiKAsRiOMAAvxyMKqMew8OoOgAAAAAAAAAAAAAAAAAAAAAAAAAAAAA==

> <PUBCHEM_IUPAC_OPENEYE_NAME>
[(2R,3S,5R)-5-(5-methyl-2,4-dioxo-pyrimidin-1-yl)-2-(trityloxymethyl)tetrahydrofuran-3-yl] divinyl phosphate

> <PUBCHEM_IUPAC_CAS_NAME>
phosphoric acid bis(ethenyl) [(2R,3S,5R)-5-(5-methyl-2,4-dioxo-1-pyrimidinyl)-2-[(triphenylmethyl)oxymethyl]-3-oxolanyl] ester

> <PUBCHEM_IUPAC_NAME_MARKUP>
bis(ethenyl) [(2<I>R</I>,3<I>S</I>,5<I>R</I>)-5-(5-methyl-2,4-dioxopyrimidin-1-yl)-2-(trityloxymethyl)oxolan-3-yl] phosphate

> <PUBCHEM_IUPAC_NAME>
bis(ethenyl) [(2R,3S,5R)-5-(5-methyl-2,4-dioxopyrimidin-1-yl)-2-(trityloxymethyl)oxolan-3-yl] phosphate

> <PUBCHEM_IUPAC_SYSTEMATIC_NAME>
bis(ethenyl) [(2R,3S,5R)-5-[5-methyl-2,4-bis(oxidanylidene)pyrimidin-1-yl]-2-[(triphenylmethyl)oxymethyl]oxolan-3-yl] phosphate

> <PUBCHEM_IUPAC_TRADITIONAL_NAME>
phosphoric acid [(2R,3S,5R)-5-(2,4-diketo-5-methyl-pyrimidin-1-yl)-2-(trityloxymethyl)tetrahydrofuran-3-yl] divinyl ester

> <PUBCHEM_IUPAC_INCHI>
InChI=1S/C33H33N2O8P/c1-4-40-44(38,41-5-2)43-28-21-30(35-22-24(3)31(36)34-32(35)37)42-29(28)23-39-33(25-15-9-6-10-16-25,26-17-11-7-12-18-26)27-19-13-8-14-20-27/h4-20,22,28-30H,1-2,21,23H2,3H3,(H,34,36,37)/t28-,29+,30+/m0/s1

> <PUBCHEM_IUPAC_INCHIKEY>
BWMLDJBOJVFBFU-FRXPANAUSA-N

> <PUBCHEM_XLOGP3>
5.4

> <PUBCHEM_EXACT_MASS>
616.19745301

> <PUBCHEM_MOLECULAR_FORMULA>
C33H33N2O8P

> <PUBCHEM_MOLECULAR_WEIGHT>
616.6

> <PUBCHEM_OPENEYE_CAN_SMILES>
CC1=CN(C(=O)NC1=O)C2CC(C(O2)COC(C3=CC=CC=C3)(C4=CC=CC=C4)C5=CC=CC=C5)OP(=O)(OC=C)OC=C

> <PUBCHEM_OPENEYE_ISO_SMILES>
CC1=CN(C(=O)NC1=O)[C@H]2C[C@@H]([C@H](O2)COC(C3=CC=CC=C3)(C4=CC=CC=C4)C5=CC=CC=C5)OP(=O)(OC=C)OC=C

> <PUBCHEM_CACTVS_TPSA>
113

> <PUBCHEM_MONOISOTOPIC_WEIGHT>
616.19745301

> <PUBCHEM_TOTAL_CHARGE>
0

> <PUBCHEM_HEAVY_ATOM_COUNT>
44

> <PUBCHEM_ATOM_DEF_STEREO_COUNT>
3

> <PUBCHEM_ATOM_UDEF_STEREO_COUNT>
0

> <PUBCHEM_BOND_DEF_STEREO_COUNT>
0

> <PUBCHEM_BOND_UDEF_STEREO_COUNT>
0

> <PUBCHEM_ISOTOPIC_ATOM_COUNT>
0

> <PUBCHEM_COMPONENT_COUNT>
1

> <PUBCHEM_CACTVS_TAUTO_COUNT>
-1

> <PUBCHEM_COORDINATE_TYPE>
1
5
255

> <PUBCHEM_BONDANNOTATIONS>
15  10  6
10  18  8
10  19  8
11  19  8
11  24  8
13  16  6
18  23  8
20  25  8
20  28  8
21  26  8
21  29  8
22  27  8
22  30  8
23  24  8
25  32  8
26  33  8
27  34  8
28  35  8
29  36  8
12  3  5
30  37  8
32  38  8
33  39  8
34  40  8
35  38  8
36  39  8
37  40  8

$$$$
