 
  -OEChem-10192104092D

 47 47  0     0  0  0  0  0  0999 V2000
    3.7320   -2.8450    0.0000 O   0  0  0  0  0  0  0  0  0  0  0  0
    8.9282    6.1550    0.0000 O   0  0  0  0  0  0  0  0  0  0  0  0
    9.7942    4.6550    0.0000 O   0  0  0  0  0  0  0  0  0  0  0  0
    2.0000   -5.8450    0.0000 O   0  0  0  0  0  0  0  0  0  0  0  0
    6.3301    0.6550    0.0000 C   0  0  0  0  0  0  0  0  0  0  0  0
    6.3301    1.6550    0.0000 C   0  0  0  0  0  0  0  0  0  0  0  0
    5.4641    0.1550    0.0000 C   0  0  0  0  0  0  0  0  0  0  0  0
    7.1962    2.1550    0.0000 C   0  0  0  0  0  0  0  0  0  0  0  0
    5.4641   -0.8450    0.0000 C   0  0  0  0  0  0  0  0  0  0  0  0
    7.1962    3.1550    0.0000 C   0  0  0  0  0  0  0  0  0  0  0  0
    4.5981   -1.3450    0.0000 C   0  0  0  0  0  0  0  0  0  0  0  0
    8.0622    3.6550    0.0000 C   0  0  0  0  0  0  0  0  0  0  0  0
    4.5981   -2.3450    0.0000 C   0  0  0  0  0  0  0  0  0  0  0  0
    8.0622    4.6550    0.0000 C   0  0  0  0  0  0  0  0  0  0  0  0
    8.9282    5.1550    0.0000 C   0  0  0  0  0  0  0  0  0  0  0  0
    3.7320   -3.8450    0.0000 C   0  0  0  0  0  0  0  0  0  0  0  0
    2.8660   -4.3450    0.0000 C   0  0  0  0  0  0  0  0  0  0  0  0
    4.5981   -4.3450    0.0000 C   0  0  0  0  0  0  0  0  0  0  0  0
    2.8660   -5.3450    0.0000 C   0  0  0  0  0  0  0  0  0  0  0  0
    4.5981   -5.3450    0.0000 C   0  0  0  0  0  0  0  0  0  0  0  0
    3.7320   -5.8450    0.0000 C   0  0  0  0  0  0  0  0  0  0  0  0
    6.5422    0.0724    0.0000 H   0  0  0  0  0  0  0  0  0  0  0  0
    6.9407    0.7627    0.0000 H   0  0  0  0  0  0  0  0  0  0  0  0
    6.1181    2.2376    0.0000 H   0  0  0  0  0  0  0  0  0  0  0  0
    5.7196    1.5473    0.0000 H   0  0  0  0  0  0  0  0  0  0  0  0
    5.2520    0.7376    0.0000 H   0  0  0  0  0  0  0  0  0  0  0  0
    4.8535    0.0473    0.0000 H   0  0  0  0  0  0  0  0  0  0  0  0
    7.4082    1.5724    0.0000 H   0  0  0  0  0  0  0  0  0  0  0  0
    7.8067    2.2627    0.0000 H   0  0  0  0  0  0  0  0  0  0  0  0
    5.6762   -1.4276    0.0000 H   0  0  0  0  0  0  0  0  0  0  0  0
    6.0747   -0.7373    0.0000 H   0  0  0  0  0  0  0  0  0  0  0  0
    6.9841    3.7376    0.0000 H   0  0  0  0  0  0  0  0  0  0  0  0
    6.5856    3.0473    0.0000 H   0  0  0  0  0  0  0  0  0  0  0  0
    4.3860   -0.7624    0.0000 H   0  0  0  0  0  0  0  0  0  0  0  0
    3.9875   -1.4527    0.0000 H   0  0  0  0  0  0  0  0  0  0  0  0
    8.2742    3.0724    0.0000 H   0  0  0  0  0  0  0  0  0  0  0  0
    8.6728    3.7627    0.0000 H   0  0  0  0  0  0  0  0  0  0  0  0
    4.8101   -2.9276    0.0000 H   0  0  0  0  0  0  0  0  0  0  0  0
    5.2087   -2.2373    0.0000 H   0  0  0  0  0  0  0  0  0  0  0  0
    7.8501    5.2376    0.0000 H   0  0  0  0  0  0  0  0  0  0  0  0
    7.4516    4.5473    0.0000 H   0  0  0  0  0  0  0  0  0  0  0  0
    2.3291   -4.0350    0.0000 H   0  0  0  0  0  0  0  0  0  0  0  0
    5.1350   -4.0350    0.0000 H   0  0  0  0  0  0  0  0  0  0  0  0
    9.4651    6.4650    0.0000 H   0  0  0  0  0  0  0  0  0  0  0  0
    5.1350   -5.6550    0.0000 H   0  0  0  0  0  0  0  0  0  0  0  0
    3.7320   -6.4650    0.0000 H   0  0  0  0  0  0  0  0  0  0  0  0
    2.0000   -6.4650    0.0000 H   0  0  0  0  0  0  0  0  0  0  0  0
  1 13  1  0  0  0  0
  1 16  1  0  0  0  0
  2 15  1  0  0  0  0
  2 44  1  0  0  0  0
  3 15  2  0  0  0  0
  4 19  1  0  0  0  0
  4 47  1  0  0  0  0
  5  6  1  0  0  0  0
  5  7  1  0  0  0  0
  5 22  1  0  0  0  0
  5 23  1  0  0  0  0
  6  8  1  0  0  0  0
  6 24  1  0  0  0  0
  6 25  1  0  0  0  0
  7  9  1  0  0  0  0
  7 26  1  0  0  0  0
  7 27  1  0  0  0  0
  8 10  1  0  0  0  0
  8 28  1  0  0  0  0
  8 29  1  0  0  0  0
  9 11  1  0  0  0  0
  9 30  1  0  0  0  0
  9 31  1  0  0  0  0
 10 12  1  0  0  0  0
 10 32  1  0  0  0  0
 10 33  1  0  0  0  0
 11 13  1  0  0  0  0
 11 34  1  0  0  0  0
 11 35  1  0  0  0  0
 12 14  1  0  0  0  0
 12 36  1  0  0  0  0
 12 37  1  0  0  0  0
 13 38  1  0  0  0  0
 13 39  1  0  0  0  0
 14 15  1  0  0  0  0
 14 40  1  0  0  0  0
 14 41  1  0  0  0  0
 16 17  1  0  0  0  0
 16 18  2  0  0  0  0
 17 19  2  0  0  0  0
 17 42  1  0  0  0  0
 18 20  1  0  0  0  0
 18 43  1  0  0  0  0
 19 21  1  0  0  0  0
 20 21  2  0  0  0  0
 20 45  1  0  0  0  0
 21 46  1  0  0  0  0
M  END
> <PUBCHEM_COMPOUND_CID>
68917905

> <PUBCHEM_COMPOUND_CANONICALIZED>
1

> <PUBCHEM_CACTVS_COMPLEXITY>
268

> <PUBCHEM_CACTVS_HBOND_ACCEPTOR>
4

> <PUBCHEM_CACTVS_HBOND_DONOR>
2

> <PUBCHEM_CACTVS_ROTATABLE_BOND>
12

> <PUBCHEM_CACTVS_SUBSKEYS>
AAADceB4OAAAAAAAAAAAAAAAAAAAAAAAAAAwAAAAAAAAAAABAAAAGgAACAAACASgkAIwDoAABgCIACDSCAACCAAgIAAIiAEGCIgMJzKGMRqCeCClwBUIuAeI6KyAAAAACAAAAAAAAAAQAAAAAAAAAAAAAA==

> <PUBCHEM_IUPAC_OPENEYE_NAME>
11-(3-hydroxyphenoxy)undecanoic acid

> <PUBCHEM_IUPAC_CAS_NAME>
11-(3-hydroxyphenoxy)undecanoic acid

> <PUBCHEM_IUPAC_NAME_MARKUP>
11-(3-hydroxyphenoxy)undecanoic acid

> <PUBCHEM_IUPAC_NAME>
11-(3-hydroxyphenoxy)undecanoic acid

> <PUBCHEM_IUPAC_SYSTEMATIC_NAME>
11-(3-oxidanylphenoxy)undecanoic acid

> <PUBCHEM_IUPAC_TRADITIONAL_NAME>
11-(3-hydroxyphenoxy)undecanoic acid

> <PUBCHEM_IUPAC_INCHI>
InChI=1S/C17H26O4/c18-15-10-9-11-16(14-15)21-13-8-6-4-2-1-3-5-7-12-17(19)20/h9-11,14,18H,1-8,12-13H2,(H,19,20)

> <PUBCHEM_IUPAC_INCHIKEY>
QJZADDZAFOWVCU-UHFFFAOYSA-N

> <PUBCHEM_XLOGP3>
5.1

> <PUBCHEM_EXACT_MASS>
294.18310931

> <PUBCHEM_MOLECULAR_FORMULA>
C17H26O4

> <PUBCHEM_MOLECULAR_WEIGHT>
294.4

> <PUBCHEM_OPENEYE_CAN_SMILES>
C1=CC(=CC(=C1)OCCCCCCCCCCC(=O)O)O

> <PUBCHEM_OPENEYE_ISO_SMILES>
C1=CC(=CC(=C1)OCCCCCCCCCCC(=O)O)O

> <PUBCHEM_CACTVS_TPSA>
66.8

> <PUBCHEM_MONOISOTOPIC_WEIGHT>
294.18310931

> <PUBCHEM_TOTAL_CHARGE>
0

> <PUBCHEM_HEAVY_ATOM_COUNT>
21

> <PUBCHEM_ATOM_DEF_STEREO_COUNT>
0

> <PUBCHEM_ATOM_UDEF_STEREO_COUNT>
0

> <PUBCHEM_BOND_DEF_STEREO_COUNT>
0

> <PUBCHEM_BOND_UDEF_STEREO_COUNT>
0

> <PUBCHEM_ISOTOPIC_ATOM_COUNT>
0

> <PUBCHEM_COMPONENT_COUNT>
1

> <PUBCHEM_CACTVS_TAUTO_COUNT>
-1

> <PUBCHEM_COORDINATE_TYPE>
1
5
255

> <PUBCHEM_BONDANNOTATIONS>
16  17  8
16  18  8
17  19  8
18  20  8
19  21  8
20  21  8

$$$$
