 
  -OEChem-10192104102D

 67 71  0     0  0  0  0  0  0999 V2000
    3.7925   -7.2679    0.0000 S   0  0  0  0  0  0  0  0  0  0  0  0
    2.3135    4.8667    0.0000 O   0  0  0  0  0  0  0  0  0  0  0  0
    5.8748   -1.0246    0.0000 O   0  0  0  0  0  0  0  0  0  0  0  0
    2.7925   -7.2679    0.0000 O   0  0  0  0  0  0  0  0  0  0  0  0
    4.7925   -7.2679    0.0000 O   0  0  0  0  0  0  0  0  0  0  0  0
    4.7861    5.6294    0.0000 N   0  0  0  0  0  0  0  0  0  0  0  0
    3.8080    5.8373    0.0000 N   0  0  0  0  0  0  0  0  0  0  0  0
    4.4736   -0.0065    0.0000 N   0  0  0  0  0  0  0  0  0  0  0  0
    3.7925   -3.2679    0.0000 N   0  0  0  0  0  0  0  0  0  0  0  0
    3.7692    3.2500    0.0000 N   0  0  0  0  0  0  0  0  0  0  0  0
    3.4954    0.2014    0.0000 N   0  0  0  0  0  0  0  0  0  0  0  0
    4.5124    2.5808    0.0000 N   0  0  0  0  0  0  0  0  0  0  0  0
    2.9835   -2.6801    0.0000 N   0  0  0  0  0  0  0  0  0  0  0  0
    5.5526   -2.9891    0.0000 N   0  0  0  0  0  0  0  0  0  0  0  0
    3.7925   -8.2679    0.0000 N   0  0  0  0  0  0  0  0  0  0  0  0
    4.8907    4.6348    0.0000 C   0  0  0  0  0  0  0  0  0  0  0  0
    3.9771    4.2281    0.0000 C   0  0  0  0  0  0  0  0  0  0  0  0
    3.3080    4.9712    0.0000 C   0  0  0  0  0  0  0  0  0  0  0  0
    3.4013    6.7508    0.0000 C   0  0  0  0  0  0  0  0  0  0  0  0
    4.9736    0.8595    0.0000 C   0  0  0  0  0  0  0  0  0  0  0  0
    4.3044    1.6027    0.0000 C   0  0  0  0  0  0  0  0  0  0  0  0
    5.5293    6.2985    0.0000 C   0  0  0  0  0  0  0  0  0  0  0  0
    4.2925   -1.7291    0.0000 C   0  0  0  0  0  0  0  0  0  0  0  0
    5.7567    4.1348    0.0000 C   0  0  0  0  0  0  0  0  0  0  0  0
    4.6015   -2.6801    0.0000 C   0  0  0  0  0  0  0  0  0  0  0  0
    3.3909    1.1959    0.0000 C   0  0  0  0  0  0  0  0  0  0  0  0
    4.8803   -0.9200    0.0000 C   0  0  0  0  0  0  0  0  0  0  0  0
    3.7925   -4.2679    0.0000 C   0  0  0  0  0  0  0  0  0  0  0  0
    3.9890    7.5598    0.0000 C   0  0  0  0  0  0  0  0  0  0  0  0
    2.4067    6.8553    0.0000 C   0  0  0  0  0  0  0  0  0  0  0  0
    5.9681    0.9641    0.0000 C   0  0  0  0  0  0  0  0  0  0  0  0
    3.2925   -1.7291    0.0000 C   0  0  0  0  0  0  0  0  0  0  0  0
    2.9265   -4.7679    0.0000 C   0  0  0  0  0  0  0  0  0  0  0  0
    4.6586   -4.7679    0.0000 C   0  0  0  0  0  0  0  0  0  0  0  0
    3.7925   -6.2679    0.0000 C   0  0  0  0  0  0  0  0  0  0  0  0
    2.5249    1.6959    0.0000 C   0  0  0  0  0  0  0  0  0  0  0  0
    2.9265   -5.7679    0.0000 C   0  0  0  0  0  0  0  0  0  0  0  0
    4.6586   -5.7679    0.0000 C   0  0  0  0  0  0  0  0  0  0  0  0
    3.5823    8.4734    0.0000 C   0  0  0  0  0  0  0  0  0  0  0  0
    2.0000    7.7689    0.0000 C   0  0  0  0  0  0  0  0  0  0  0  0
    2.5878    8.5779    0.0000 C   0  0  0  0  0  0  0  0  0  0  0  0
    5.9441    5.8377    0.0000 H   0  0  0  0  0  0  0  0  0  0  0  0
    5.9900    6.7134    0.0000 H   0  0  0  0  0  0  0  0  0  0  0  0
    5.1144    6.7592    0.0000 H   0  0  0  0  0  0  0  0  0  0  0  0
    5.4467    3.5979    0.0000 H   0  0  0  0  0  0  0  0  0  0  0  0
    6.2936    3.8248    0.0000 H   0  0  0  0  0  0  0  0  0  0  0  0
    6.0667    4.6718    0.0000 H   0  0  0  0  0  0  0  0  0  0  0  0
    4.6056    7.4950    0.0000 H   0  0  0  0  0  0  0  0  0  0  0  0
    2.0423    6.3538    0.0000 H   0  0  0  0  0  0  0  0  0  0  0  0
    6.0329    0.3475    0.0000 H   0  0  0  0  0  0  0  0  0  0  0  0
    6.5847    1.0289    0.0000 H   0  0  0  0  0  0  0  0  0  0  0  0
    5.9033    1.5807    0.0000 H   0  0  0  0  0  0  0  0  0  0  0  0
    2.9281   -1.2275    0.0000 H   0  0  0  0  0  0  0  0  0  0  0  0
    2.3896   -4.4579    0.0000 H   0  0  0  0  0  0  0  0  0  0  0  0
    5.1955   -4.4579    0.0000 H   0  0  0  0  0  0  0  0  0  0  0  0
    2.8349    2.2329    0.0000 H   0  0  0  0  0  0  0  0  0  0  0  0
    1.9879    2.0059    0.0000 H   0  0  0  0  0  0  0  0  0  0  0  0
    2.2149    1.1590    0.0000 H   0  0  0  0  0  0  0  0  0  0  0  0
    2.3896   -6.0779    0.0000 H   0  0  0  0  0  0  0  0  0  0  0  0
    5.1955   -6.0779    0.0000 H   0  0  0  0  0  0  0  0  0  0  0  0
    3.9467    8.9750    0.0000 H   0  0  0  0  0  0  0  0  0  0  0  0
    1.3834    7.8337    0.0000 H   0  0  0  0  0  0  0  0  0  0  0  0
    6.0134   -2.5743    0.0000 H   0  0  0  0  0  0  0  0  0  0  0  0
    5.6815   -3.5956    0.0000 H   0  0  0  0  0  0  0  0  0  0  0  0
    2.3356    9.1443    0.0000 H   0  0  0  0  0  0  0  0  0  0  0  0
    3.2556   -8.5779    0.0000 H   0  0  0  0  0  0  0  0  0  0  0  0
    4.3295   -8.5779    0.0000 H   0  0  0  0  0  0  0  0  0  0  0  0
  1  4  2  0  0  0  0
  1  5  2  0  0  0  0
  1 15  1  0  0  0  0
  1 35  1  0  0  0  0
  2 18  2  0  0  0  0
  3 27  2  0  0  0  0
  6  7  1  0  0  0  0
  6 16  1  0  0  0  0
  6 22  1  0  0  0  0
  7 18  1  0  0  0  0
  7 19  1  0  0  0  0
  8 11  1  0  0  0  0
  8 20  1  0  0  0  0
  8 27  1  0  0  0  0
  9 13  1  0  0  0  0
  9 25  1  0  0  0  0
  9 28  1  0  0  0  0
 10 12  2  0  0  0  0
 10 17  1  0  0  0  0
 11 26  2  0  0  0  0
 12 21  1  0  0  0  0
 13 32  2  0  0  0  0
 14 25  1  0  0  0  0
 14 63  1  0  0  0  0
 14 64  1  0  0  0  0
 15 66  1  0  0  0  0
 15 67  1  0  0  0  0
 16 17  2  0  0  0  0
 16 24  1  0  0  0  0
 17 18  1  0  0  0  0
 19 29  2  0  0  0  0
 19 30  1  0  0  0  0
 20 21  2  0  0  0  0
 20 31  1  0  0  0  0
 21 26  1  0  0  0  0
 22 42  1  0  0  0  0
 22 43  1  0  0  0  0
 22 44  1  0  0  0  0
 23 25  2  0  0  0  0
 23 27  1  0  0  0  0
 23 32  1  0  0  0  0
 24 45  1  0  0  0  0
 24 46  1  0  0  0  0
 24 47  1  0  0  0  0
 26 36  1  0  0  0  0
 28 33  2  0  0  0  0
 28 34  1  0  0  0  0
 29 39  1  0  0  0  0
 29 48  1  0  0  0  0
 30 40  2  0  0  0  0
 30 49  1  0  0  0  0
 31 50  1  0  0  0  0
 31 51  1  0  0  0  0
 31 52  1  0  0  0  0
 32 53  1  0  0  0  0
 33 37  1  0  0  0  0
 33 54  1  0  0  0  0
 34 38  2  0  0  0  0
 34 55  1  0  0  0  0
 35 37  2  0  0  0  0
 35 38  1  0  0  0  0
 36 56  1  0  0  0  0
 36 57  1  0  0  0  0
 36 58  1  0  0  0  0
 37 59  1  0  0  0  0
 38 60  1  0  0  0  0
 39 41  2  0  0  0  0
 39 61  1  0  0  0  0
 40 41  1  0  0  0  0
 40 62  1  0  0  0  0
 41 65  1  0  0  0  0
M  END
> <PUBCHEM_COMPOUND_CID>
129843047

> <PUBCHEM_COMPOUND_CANONICALIZED>
1

> <PUBCHEM_CACTVS_COMPLEXITY>
1180

> <PUBCHEM_CACTVS_HBOND_ACCEPTOR>
11

> <PUBCHEM_CACTVS_HBOND_DONOR>
2

> <PUBCHEM_CACTVS_ROTATABLE_BOND>
6

> <PUBCHEM_CACTVS_SUBSKEYS>
AAADceB7+ABAAAAAAAAAAAAAAAAAAWLEAAAwYAAAAAAAAAAB9AAAHgQYQAAADAjB3gQ/8ZJIAAKqAzd3dHDSBDMlkgAemDm4dNiIYOrA0dGUpIhwjALIyecQAAAAAAQAAAAAAAAACAAAAAAAAAAAAAAAAA==

> <PUBCHEM_IUPAC_OPENEYE_NAME>
4-[5-amino-4-[4-(1,5-dimethyl-3-oxo-2-phenyl-pyrazol-4-yl)azo-3,5-dimethyl-pyrazole-1-carbonyl]pyrazol-1-yl]benzenesulfonamide

> <PUBCHEM_IUPAC_CAS_NAME>
4-[5-amino-4-[[4-[(1,5-dimethyl-3-oxo-2-phenyl-4-pyrazolyl)azo]-3,5-dimethyl-1-pyrazolyl]-oxomethyl]-1-pyrazolyl]benzenesulfonamide

> <PUBCHEM_IUPAC_NAME_MARKUP>
4-[5-amino-4-[4-[(1,5-dimethyl-3-oxo-2-phenylpyrazol-4-yl)diazenyl]-3,5-dimethylpyrazole-1-carbonyl]pyrazol-1-yl]benzenesulfonamide

> <PUBCHEM_IUPAC_NAME>
4-[5-amino-4-[4-[(1,5-dimethyl-3-oxo-2-phenylpyrazol-4-yl)diazenyl]-3,5-dimethylpyrazole-1-carbonyl]pyrazol-1-yl]benzenesulfonamide

> <PUBCHEM_IUPAC_SYSTEMATIC_NAME>
4-[5-azanyl-4-[4-[(1,5-dimethyl-3-oxidanylidene-2-phenyl-pyrazol-4-yl)diazenyl]-3,5-dimethyl-pyrazol-1-yl]carbonyl-pyrazol-1-yl]benzenesulfonamide

> <PUBCHEM_IUPAC_TRADITIONAL_NAME>
4-[5-amino-4-[4-[(3-keto-1,5-dimethyl-2-phenyl-3-pyrazolin-4-yl)azo]-3,5-dimethyl-pyrazole-1-carbonyl]pyrazol-1-yl]benzenesulfonamide

> <PUBCHEM_IUPAC_INCHI>
InChI=1S/C26H26N10O4S/c1-15-22(30-31-23-16(2)33(4)36(26(23)38)19-8-6-5-7-9-19)17(3)34(32-15)25(37)21-14-29-35(24(21)27)18-10-12-20(13-11-18)41(28,39)40/h5-14H,27H2,1-4H3,(H2,28,39,40)

> <PUBCHEM_IUPAC_INCHIKEY>
KXPSCWMEECXAER-UHFFFAOYSA-N

> <PUBCHEM_XLOGP3_AA>
3.4

> <PUBCHEM_EXACT_MASS>
574.18592052

> <PUBCHEM_MOLECULAR_FORMULA>
C26H26N10O4S

> <PUBCHEM_MOLECULAR_WEIGHT>
574.6

> <PUBCHEM_OPENEYE_CAN_SMILES>
CC1=C(C(=O)N(N1C)C2=CC=CC=C2)N=NC3=C(N(N=C3C)C(=O)C4=C(N(N=C4)C5=CC=C(C=C5)S(=O)(=O)N)N)C

> <PUBCHEM_OPENEYE_ISO_SMILES>
CC1=C(C(=O)N(N1C)C2=CC=CC=C2)N=NC3=C(N(N=C3C)C(=O)C4=C(N(N=C4)C5=CC=C(C=C5)S(=O)(=O)N)N)C

> <PUBCHEM_CACTVS_TPSA>
196

> <PUBCHEM_MONOISOTOPIC_WEIGHT>
574.18592052

> <PUBCHEM_TOTAL_CHARGE>
0

> <PUBCHEM_HEAVY_ATOM_COUNT>
41

> <PUBCHEM_ATOM_DEF_STEREO_COUNT>
0

> <PUBCHEM_ATOM_UDEF_STEREO_COUNT>
0

> <PUBCHEM_BOND_DEF_STEREO_COUNT>
0

> <PUBCHEM_BOND_UDEF_STEREO_COUNT>
0

> <PUBCHEM_ISOTOPIC_ATOM_COUNT>
0

> <PUBCHEM_COMPONENT_COUNT>
1

> <PUBCHEM_CACTVS_TAUTO_COUNT>
-1

> <PUBCHEM_COORDINATE_TYPE>
1
5
255

> <PUBCHEM_BONDANNOTATIONS>
11  26  8
13  32  8
16  17  8
17  18  8
19  29  8
19  30  8
20  21  8
21  26  8
23  25  8
23  32  8
28  33  8
28  34  8
29  39  8
30  40  8
33  37  8
34  38  8
35  37  8
35  38  8
39  41  8
40  41  8
6  16  8
6  7  8
7  18  8
8  11  8
8  20  8
9  13  8
9  25  8

$$$$
