 
  -OEChem-10192104122D

 28 28  0     0  0  0  0  0  0999 V2000
    2.3244    2.5681    0.0000 O   0  0  0  0  0  0  0  0  0  0  0  0
    3.4810   -2.4872    0.0000 O   0  0  0  0  0  0  0  0  0  0  0  0
    5.0812   -1.8244    0.0000 O   0  0  0  0  0  0  0  0  0  0  0  0
    3.7071   -0.7700    0.0000 C   0  0  0  0  0  0  0  0  0  0  0  0
    4.4142   -0.0629    0.0000 C   0  0  0  0  0  0  0  0  0  0  0  0
    2.7071   -0.7700    0.0000 C   0  0  0  0  0  0  0  0  0  0  0  0
    2.7071    1.6442    0.0000 C   0  0  0  0  0  0  0  0  0  0  0  0
    4.4142    0.9371    0.0000 C   0  0  0  0  0  0  0  0  0  0  0  0
    2.0000   -0.0629    0.0000 C   0  0  0  0  0  0  0  0  0  0  0  0
    3.7071    1.6442    0.0000 C   0  0  0  0  0  0  0  0  0  0  0  0
    2.0000    0.9371    0.0000 C   0  0  0  0  0  0  0  0  0  0  0  0
    4.0898   -1.6938    0.0000 C   0  0  0  0  0  0  0  0  0  0  0  0
    3.3626   -1.2855    0.0000 H   0  0  0  0  0  0  0  0  0  0  0  0
    4.7242   -0.5998    0.0000 H   0  0  0  0  0  0  0  0  0  0  0  0
    5.0131    0.0976    0.0000 H   0  0  0  0  0  0  0  0  0  0  0  0
    2.1702   -1.0800    0.0000 H   0  0  0  0  0  0  0  0  0  0  0  0
    2.8676   -1.3688    0.0000 H   0  0  0  0  0  0  0  0  0  0  0  0
    3.0516    2.1598    0.0000 H   0  0  0  0  0  0  0  0  0  0  0  0
    5.0131    0.7767    0.0000 H   0  0  0  0  0  0  0  0  0  0  0  0
    4.7242    1.4741    0.0000 H   0  0  0  0  0  0  0  0  0  0  0  0
    1.4011    0.0976    0.0000 H   0  0  0  0  0  0  0  0  0  0  0  0
    1.6900   -0.5998    0.0000 H   0  0  0  0  0  0  0  0  0  0  0  0
    4.2440    1.9542    0.0000 H   0  0  0  0  0  0  0  0  0  0  0  0
    3.5466    2.2431    0.0000 H   0  0  0  0  0  0  0  0  0  0  0  0
    1.6900    1.4741    0.0000 H   0  0  0  0  0  0  0  0  0  0  0  0
    1.4011    0.7767    0.0000 H   0  0  0  0  0  0  0  0  0  0  0  0
    2.7019    3.0600    0.0000 H   0  0  0  0  0  0  0  0  0  0  0  0
    3.7183   -3.0600    0.0000 H   0  0  0  0  0  0  0  0  0  0  0  0
  1  7  1  0  0  0  0
  1 27  1  0  0  0  0
  2 12  1  0  0  0  0
  2 28  1  0  0  0  0
  3 12  2  0  0  0  0
  4  5  1  0  0  0  0
  4  6  1  0  0  0  0
  4 12  1  0  0  0  0
  4 13  1  0  0  0  0
  5  8  1  0  0  0  0
  5 14  1  0  0  0  0
  5 15  1  0  0  0  0
  6  9  1  0  0  0  0
  6 16  1  0  0  0  0
  6 17  1  0  0  0  0
  7 10  1  0  0  0  0
  7 11  1  0  0  0  0
  7 18  1  0  0  0  0
  8 10  1  0  0  0  0
  8 19  1  0  0  0  0
  8 20  1  0  0  0  0
  9 11  1  0  0  0  0
  9 21  1  0  0  0  0
  9 22  1  0  0  0  0
 10 23  1  0  0  0  0
 10 24  1  0  0  0  0
 11 25  1  0  0  0  0
 11 26  1  0  0  0  0
M  END
> <PUBCHEM_COMPOUND_CID>
129926350

> <PUBCHEM_COMPOUND_CANONICALIZED>
1

> <PUBCHEM_CACTVS_COMPLEXITY>
146

> <PUBCHEM_CACTVS_HBOND_ACCEPTOR>
3

> <PUBCHEM_CACTVS_HBOND_DONOR>
2

> <PUBCHEM_CACTVS_ROTATABLE_BOND>
1

> <PUBCHEM_CACTVS_SUBSKEYS>
AAADceBwMAAAAAAAAAAAAAAAAAAAAAAAAAAAAAAAAAAYAAAAAAAAGgAACAAADRSggAIACAAAAgAIAACQCAAAAAAAAAAAAAEAAAAAEBIAAAAAQAAEAAAAAAGIyPCOAAAAAAAAAAAAAAAAAAAAAAAAAAAAAA==

> <PUBCHEM_IUPAC_OPENEYE_NAME>
5-hydroxycyclooctanecarboxylic acid

> <PUBCHEM_IUPAC_CAS_NAME>
5-hydroxy-1-cyclooctanecarboxylic acid

> <PUBCHEM_IUPAC_NAME_MARKUP>
5-hydroxycyclooctane-1-carboxylic acid

> <PUBCHEM_IUPAC_NAME>
5-hydroxycyclooctane-1-carboxylic acid

> <PUBCHEM_IUPAC_SYSTEMATIC_NAME>
5-oxidanylcyclooctane-1-carboxylic acid

> <PUBCHEM_IUPAC_TRADITIONAL_NAME>
5-hydroxycyclooctanecarboxylic acid

> <PUBCHEM_IUPAC_INCHI>
InChI=1S/C9H16O3/c10-8-5-1-3-7(9(11)12)4-2-6-8/h7-8,10H,1-6H2,(H,11,12)

> <PUBCHEM_IUPAC_INCHIKEY>
AQOXECUDDGMNHT-UHFFFAOYSA-N

> <PUBCHEM_XLOGP3_AA>
1.1

> <PUBCHEM_EXACT_MASS>
172.109944368

> <PUBCHEM_MOLECULAR_FORMULA>
C9H16O3

> <PUBCHEM_MOLECULAR_WEIGHT>
172.22

> <PUBCHEM_OPENEYE_CAN_SMILES>
C1CC(CCCC(C1)O)C(=O)O

> <PUBCHEM_OPENEYE_ISO_SMILES>
C1CC(CCCC(C1)O)C(=O)O

> <PUBCHEM_CACTVS_TPSA>
57.5

> <PUBCHEM_MONOISOTOPIC_WEIGHT>
172.109944368

> <PUBCHEM_TOTAL_CHARGE>
0

> <PUBCHEM_HEAVY_ATOM_COUNT>
12

> <PUBCHEM_ATOM_DEF_STEREO_COUNT>
0

> <PUBCHEM_ATOM_UDEF_STEREO_COUNT>
0

> <PUBCHEM_BOND_DEF_STEREO_COUNT>
0

> <PUBCHEM_BOND_UDEF_STEREO_COUNT>
0

> <PUBCHEM_ISOTOPIC_ATOM_COUNT>
0

> <PUBCHEM_COMPONENT_COUNT>
1

> <PUBCHEM_CACTVS_TAUTO_COUNT>
-1

> <PUBCHEM_COORDINATE_TYPE>
1
5
255

$$$$
