 
  -OEChem-10192104062D

 66 70  0     0  0  0  0  0  0999 V2000
   14.6718    0.2925    0.0000 O   0  0  0  0  0  0  0  0  0  0  0  0
    6.8671    1.8371    0.0000 O   0  0  0  0  0  0  0  0  0  0  0  0
   12.9399    0.3126    0.0000 O   0  0  0  0  0  0  0  0  0  0  0  0
    6.8671    3.8371    0.0000 O   0  0  0  0  0  0  0  0  0  0  0  0
    7.7331    3.3371    0.0000 O   0  0  0  0  0  0  0  0  0  0  0  0
    2.5369    3.3371    0.0000 O   0  0  0  0  0  0  0  0  0  0  0  0
   15.4857   -4.2172    0.0000 O   0  0  0  0  0  0  0  0  0  0  0  0
   12.9292    2.3371    0.0000 C   0  0  0  0  0  0  0  0  0  0  0  0
   12.9292    3.3371    0.0000 C   0  0  0  0  0  0  0  0  0  0  0  0
   11.1972    2.3371    0.0000 C   0  0  0  0  0  0  0  0  0  0  0  0
   12.0632    1.8371    0.0000 C   0  0  0  0  0  0  0  0  0  0  0  0
   13.8232    1.8025    0.0000 C   0  0  0  0  0  0  0  0  0  0  0  0
   10.3312    1.8371    0.0000 C   0  0  0  0  0  0  0  0  0  0  0  0
   12.0632    3.8371    0.0000 C   0  0  0  0  0  0  0  0  0  0  0  0
   11.1972    3.3371    0.0000 C   0  0  0  0  0  0  0  0  0  0  0  0
   13.8232    3.8718    0.0000 C   0  0  0  0  0  0  0  0  0  0  0  0
   14.7292    2.3163    0.0000 C   0  0  0  0  0  0  0  0  0  0  0  0
    9.4651    2.3371    0.0000 C   0  0  0  0  0  0  0  0  0  0  0  0
   14.7292    3.3579    0.0000 C   0  0  0  0  0  0  0  0  0  0  0  0
   10.3312    0.8371    0.0000 C   0  0  0  0  0  0  0  0  0  0  0  0
    8.5991    1.8371    0.0000 C   0  0  0  0  0  0  0  0  0  0  0  0
   13.8116    0.8025    0.0000 C   0  0  0  0  0  0  0  0  0  0  0  0
    9.4651    0.3371    0.0000 C   0  0  0  0  0  0  0  0  0  0  0  0
    8.5991    0.8371    0.0000 C   0  0  0  0  0  0  0  0  0  0  0  0
    7.7331    2.3371    0.0000 C   0  0  0  0  0  0  0  0  0  0  0  0
    6.0010    2.3371    0.0000 C   0  0  0  0  0  0  0  0  0  0  0  0
   14.6602   -0.7074    0.0000 C   0  0  0  0  0  0  0  0  0  0  0  0
    4.2690    3.3371    0.0000 C   0  0  0  0  0  0  0  0  0  0  0  0
    6.0010    3.3371    0.0000 C   0  0  0  0  0  0  0  0  0  0  0  0
    5.1350    3.8371    0.0000 C   0  0  0  0  0  0  0  0  0  0  0  0
    5.1350    1.8371    0.0000 C   0  0  0  0  0  0  0  0  0  0  0  0
    4.2690    2.3371    0.0000 C   0  0  0  0  0  0  0  0  0  0  0  0
   14.6371   -2.7072    0.0000 C   0  0  0  0  0  0  0  0  0  0  0  0
   15.5204   -1.2174    0.0000 C   0  0  0  0  0  0  0  0  0  0  0  0
   13.7885   -1.1973    0.0000 C   0  0  0  0  0  0  0  0  0  0  0  0
   15.5089   -2.2173    0.0000 C   0  0  0  0  0  0  0  0  0  0  0  0
   13.7769   -2.1973    0.0000 C   0  0  0  0  0  0  0  0  0  0  0  0
    3.4030    3.8371    0.0000 C   0  0  0  0  0  0  0  0  0  0  0  0
   14.6256   -3.7072    0.0000 C   0  0  0  0  0  0  0  0  0  0  0  0
    6.8671    4.8371    0.0000 C   0  0  0  0  0  0  0  0  0  0  0  0
   12.0632    1.2171    0.0000 H   0  0  0  0  0  0  0  0  0  0  0  0
   12.0632    4.4571    0.0000 H   0  0  0  0  0  0  0  0  0  0  0  0
   10.6603    3.6471    0.0000 H   0  0  0  0  0  0  0  0  0  0  0  0
   13.8160    4.4917    0.0000 H   0  0  0  0  0  0  0  0  0  0  0  0
   15.2650    2.0042    0.0000 H   0  0  0  0  0  0  0  0  0  0  0  0
    9.4651    2.9571    0.0000 H   0  0  0  0  0  0  0  0  0  0  0  0
   15.2650    3.6700    0.0000 H   0  0  0  0  0  0  0  0  0  0  0  0
   10.8681    0.5271    0.0000 H   0  0  0  0  0  0  0  0  0  0  0  0
    9.4651   -0.2829    0.0000 H   0  0  0  0  0  0  0  0  0  0  0  0
    8.0622    0.5271    0.0000 H   0  0  0  0  0  0  0  0  0  0  0  0
    5.1350    4.4571    0.0000 H   0  0  0  0  0  0  0  0  0  0  0  0
    5.1350    1.2171    0.0000 H   0  0  0  0  0  0  0  0  0  0  0  0
    3.7320    2.0271    0.0000 H   0  0  0  0  0  0  0  0  0  0  0  0
   16.0609   -0.9136    0.0000 H   0  0  0  0  0  0  0  0  0  0  0  0
   13.2552   -0.8811    0.0000 H   0  0  0  0  0  0  0  0  0  0  0  0
   16.0422   -2.5335    0.0000 H   0  0  0  0  0  0  0  0  0  0  0  0
   13.2364   -2.5010    0.0000 H   0  0  0  0  0  0  0  0  0  0  0  0
    3.8015    4.3121    0.0000 H   0  0  0  0  0  0  0  0  0  0  0  0
    3.0044    4.3121    0.0000 H   0  0  0  0  0  0  0  0  0  0  0  0
   14.0163   -3.5925    0.0000 H   0  0  0  0  0  0  0  0  0  0  0  0
   14.4068   -4.2873    0.0000 H   0  0  0  0  0  0  0  0  0  0  0  0
    7.4871    4.8371    0.0000 H   0  0  0  0  0  0  0  0  0  0  0  0
    6.8671    5.4571    0.0000 H   0  0  0  0  0  0  0  0  0  0  0  0
    6.2471    4.8371    0.0000 H   0  0  0  0  0  0  0  0  0  0  0  0
    2.0000    3.6471    0.0000 H   0  0  0  0  0  0  0  0  0  0  0  0
   15.4786   -4.8371    0.0000 H   0  0  0  0  0  0  0  0  0  0  0  0
  1 22  1  0  0  0  0
  1 27  1  0  0  0  0
  2 25  1  0  0  0  0
  2 26  1  0  0  0  0
  3 22  2  0  0  0  0
  4 29  1  0  0  0  0
  4 40  1  0  0  0  0
  5 25  2  0  0  0  0
  6 38  1  0  0  0  0
  6 65  1  0  0  0  0
  7 39  1  0  0  0  0
  7 66  1  0  0  0  0
  8  9  2  0  0  0  0
  8 11  1  0  0  0  0
  8 12  1  0  0  0  0
  9 14  1  0  0  0  0
  9 16  1  0  0  0  0
 10 11  2  0  0  0  0
 10 13  1  0  0  0  0
 10 15  1  0  0  0  0
 11 41  1  0  0  0  0
 12 17  2  0  0  0  0
 12 22  1  0  0  0  0
 13 18  2  0  0  0  0
 13 20  1  0  0  0  0
 14 15  2  0  0  0  0
 14 42  1  0  0  0  0
 15 43  1  0  0  0  0
 16 19  2  0  0  0  0
 16 44  1  0  0  0  0
 17 19  1  0  0  0  0
 17 45  1  0  0  0  0
 18 21  1  0  0  0  0
 18 46  1  0  0  0  0
 19 47  1  0  0  0  0
 20 23  2  0  0  0  0
 20 48  1  0  0  0  0
 21 24  2  0  0  0  0
 21 25  1  0  0  0  0
 23 24  1  0  0  0  0
 23 49  1  0  0  0  0
 24 50  1  0  0  0  0
 26 29  2  0  0  0  0
 26 31  1  0  0  0  0
 27 34  2  0  0  0  0
 27 35  1  0  0  0  0
 28 30  2  0  0  0  0
 28 32  1  0  0  0  0
 28 38  1  0  0  0  0
 29 30  1  0  0  0  0
 30 51  1  0  0  0  0
 31 32  2  0  0  0  0
 31 52  1  0  0  0  0
 32 53  1  0  0  0  0
 33 36  2  0  0  0  0
 33 37  1  0  0  0  0
 33 39  1  0  0  0  0
 34 36  1  0  0  0  0
 34 54  1  0  0  0  0
 35 37  2  0  0  0  0
 35 55  1  0  0  0  0
 36 56  1  0  0  0  0
 37 57  1  0  0  0  0
 38 58  1  0  0  0  0
 38 59  1  0  0  0  0
 39 60  1  0  0  0  0
 39 61  1  0  0  0  0
 40 62  1  0  0  0  0
 40 63  1  0  0  0  0
 40 64  1  0  0  0  0
M  END
> <PUBCHEM_COMPOUND_CID>
123616970

> <PUBCHEM_COMPOUND_CANONICALIZED>
1

> <PUBCHEM_CACTVS_COMPLEXITY>
824

> <PUBCHEM_CACTVS_HBOND_ACCEPTOR>
7

> <PUBCHEM_CACTVS_HBOND_DONOR>
2

> <PUBCHEM_CACTVS_ROTATABLE_BOND>
10

> <PUBCHEM_CACTVS_SUBSKEYS>
AAADceB8OAAAAAAAAAAAAAAAAAAAAAAAAAAwYMGDAAAAAADBVAAAGgAACAAADASgmAIyDsAABgCIAiDSCAACCAAkIAAIiAEGiMgNNjKENRqCeyKkwBEKuYfI6PyO4AADAAAQQADAAAYAACCAAAAAAAAAAA==

> <PUBCHEM_IUPAC_OPENEYE_NAME>
[4-(hydroxymethyl)phenyl] 7-[3-[4-(hydroxymethyl)-2-methoxy-phenoxy]carbonylphenyl]naphthalene-1-carboxylate

> <PUBCHEM_IUPAC_CAS_NAME>
7-[3-[[4-(hydroxymethyl)-2-methoxyphenoxy]-oxomethyl]phenyl]-1-naphthalenecarboxylic acid [4-(hydroxymethyl)phenyl] ester

> <PUBCHEM_IUPAC_NAME_MARKUP>
[4-(hydroxymethyl)phenyl] 7-[3-[4-(hydroxymethyl)-2-methoxyphenoxy]carbonylphenyl]naphthalene-1-carboxylate

> <PUBCHEM_IUPAC_NAME>
[4-(hydroxymethyl)phenyl] 7-[3-[4-(hydroxymethyl)-2-methoxyphenoxy]carbonylphenyl]naphthalene-1-carboxylate

> <PUBCHEM_IUPAC_SYSTEMATIC_NAME>
[4-(hydroxymethyl)phenyl] 7-[3-[4-(hydroxymethyl)-2-methoxy-phenoxy]carbonylphenyl]naphthalene-1-carboxylate

> <PUBCHEM_IUPAC_TRADITIONAL_NAME>
7-[3-(2-methoxy-4-methylol-phenoxy)carbonylphenyl]naphthalene-1-carboxylic acid (4-methylolphenyl) ester

> <PUBCHEM_IUPAC_INCHI>
InChI=1S/C33H26O7/c1-38-31-16-22(20-35)10-15-30(31)40-32(36)26-6-2-5-24(17-26)25-12-11-23-4-3-7-28(29(23)18-25)33(37)39-27-13-8-21(19-34)9-14-27/h2-18,34-35H,19-20H2,1H3

> <PUBCHEM_IUPAC_INCHIKEY>
MRRONCPYGLDILW-UHFFFAOYSA-N

> <PUBCHEM_XLOGP3_AA>
5.8

> <PUBCHEM_EXACT_MASS>
534.16785316

> <PUBCHEM_MOLECULAR_FORMULA>
C33H26O7

> <PUBCHEM_MOLECULAR_WEIGHT>
534.6

> <PUBCHEM_OPENEYE_CAN_SMILES>
COC1=C(C=CC(=C1)CO)OC(=O)C2=CC=CC(=C2)C3=CC4=C(C=CC=C4C(=O)OC5=CC=C(C=C5)CO)C=C3

> <PUBCHEM_OPENEYE_ISO_SMILES>
COC1=C(C=CC(=C1)CO)OC(=O)C2=CC=CC(=C2)C3=CC4=C(C=CC=C4C(=O)OC5=CC=C(C=C5)CO)C=C3

> <PUBCHEM_CACTVS_TPSA>
102

> <PUBCHEM_MONOISOTOPIC_WEIGHT>
534.16785316

> <PUBCHEM_TOTAL_CHARGE>
0

> <PUBCHEM_HEAVY_ATOM_COUNT>
40

> <PUBCHEM_ATOM_DEF_STEREO_COUNT>
0

> <PUBCHEM_ATOM_UDEF_STEREO_COUNT>
0

> <PUBCHEM_BOND_DEF_STEREO_COUNT>
0

> <PUBCHEM_BOND_UDEF_STEREO_COUNT>
0

> <PUBCHEM_ISOTOPIC_ATOM_COUNT>
0

> <PUBCHEM_COMPONENT_COUNT>
1

> <PUBCHEM_CACTVS_TAUTO_COUNT>
-1

> <PUBCHEM_COORDINATE_TYPE>
1
5
255

> <PUBCHEM_BONDANNOTATIONS>
10  11  8
10  15  8
12  17  8
13  18  8
13  20  8
14  15  8
16  19  8
17  19  8
18  21  8
20  23  8
21  24  8
23  24  8
26  29  8
26  31  8
27  34  8
27  35  8
28  30  8
28  32  8
29  30  8
31  32  8
33  36  8
33  37  8
34  36  8
35  37  8
8  11  8
8  12  8
8  9  8
9  14  8
9  16  8

$$$$
