 
  -OEChem-10192103492D

 80 82  0     1  0  0  0  0  0999 V2000
   10.2267    1.4883    0.0000 O   0  0  0  0  0  0  0  0  0  0  0  0
   11.1888    5.1819    0.0000 O   0  0  0  0  0  0  0  0  0  0  0  0
   10.5400    3.5760    0.0000 O   0  0  0  0  0  0  0  0  0  0  0  0
   11.5535    0.3749    0.0000 O   0  0  0  0  0  0  0  0  0  0  0  0
   13.1811    0.9673    0.0000 O   0  0  0  0  0  0  0  0  0  0  0  0
    5.1350   -2.1041    0.0000 O   0  0  0  0  0  0  0  0  0  0  0  0
    6.8671   -2.1041    0.0000 O   0  0  0  0  0  0  0  0  0  0  0  0
    5.1350   -5.1041    0.0000 O   0  0  0  0  0  0  0  0  0  0  0  0
    3.4030   -4.1041    0.0000 O   0  0  0  0  0  0  0  0  0  0  0  0
    6.8671   -4.1041    0.0000 O   0  0  0  0  0  0  0  0  0  0  0  0
    6.0010   -0.6041    0.0000 O   0  0  0  0  0  0  0  0  0  0  0  0
    8.8999    2.6016    0.0000 O   0  0  0  0  0  0  0  0  0  0  0  0
    2.5369   -2.6041    0.0000 O   0  0  0  0  0  0  0  0  0  0  0  0
    6.0010    2.3959    0.0000 O   0  0  0  0  0  0  0  0  0  0  0  0
    7.2091    2.8356    0.0000 O   0  0  0  0  0  0  0  0  0  0  0  0
   12.4971    2.8467    0.0000 C   0  0  2  0  0  0  0  0  0  0  0  0
   12.2552    3.8170    0.0000 C   0  0  1  0  0  0  0  0  0  0  0  0
   13.1032    4.3469    0.0000 C   0  0  2  0  0  0  0  0  0  0  0  0
   13.4947    2.7769    0.0000 C   0  0  0  0  0  0  0  0  0  0  0  0
   13.8693    3.7041    0.0000 C   0  0  0  0  0  0  0  0  0  0  0  0
   11.8543    2.0807    0.0000 C   0  0  1  0  0  0  0  0  0  0  0  0
   13.1730    5.3445    0.0000 C   0  0  0  0  0  0  0  0  0  0  0  0
   11.3280    4.1916    0.0000 C   0  0  0  0  0  0  0  0  0  0  0  0
   10.8695    2.2543    0.0000 C   0  0  0  0  0  0  0  0  0  0  0  0
   12.1963    1.1410    0.0000 C   0  0  0  0  0  0  0  0  0  0  0  0
    5.1350   -4.1041    0.0000 C   0  0  2  0  0  0  0  0  0  0  0  0
    4.2690   -3.6041    0.0000 C   0  0  2  0  0  0  0  0  0  0  0  0
    6.0010   -3.6041    0.0000 C   0  0  2  0  0  0  0  0  0  0  0  0
    6.0010   -2.6041    0.0000 C   0  0  1  0  0  0  0  0  0  0  0  0
    4.2690   -2.6041    0.0000 C   0  0  1  0  0  0  0  0  0  0  0  0
    9.2419    1.6619    0.0000 C   0  0  0  0  0  0  0  0  0  0  0  0
    7.7331    0.3959    0.0000 C   0  0  1  0  0  0  0  0  0  0  0  0
    8.5991    0.8959    0.0000 C   0  0  0  0  0  0  0  0  0  0  0  0
    6.8671   -1.1041    0.0000 C   0  0  2  0  0  0  0  0  0  0  0  0
    7.7331   -0.6041    0.0000 C   0  0  0  0  0  0  0  0  0  0  0  0
    3.4030   -2.1041    0.0000 C   0  0  0  0  0  0  0  0  0  0  0  0
    6.8671    0.8959    0.0000 C   0  0  0  0  0  0  0  0  0  0  0  0
    6.0010    0.3959    0.0000 C   0  0  0  0  0  0  0  0  0  0  0  0
    8.5991   -1.1041    0.0000 C   0  0  0  0  0  0  0  0  0  0  0  0
    6.8671    1.8959    0.0000 C   0  0  0  0  0  0  0  0  0  0  0  0
    9.4651   -0.6041    0.0000 C   0  0  0  0  0  0  0  0  0  0  0  0
    6.0010    3.3959    0.0000 C   0  0  0  0  0  0  0  0  0  0  0  0
   13.0435    3.4978    0.0000 H   0  0  0  0  0  0  0  0  0  0  0  0
   12.2011    4.4346    0.0000 H   0  0  0  0  0  0  0  0  0  0  0  0
   12.5718    4.6662    0.0000 H   0  0  0  0  0  0  0  0  0  0  0  0
   13.3870    2.1664    0.0000 H   0  0  0  0  0  0  0  0  0  0  0  0
   14.0906    2.6061    0.0000 H   0  0  0  0  0  0  0  0  0  0  0  0
   14.4167    3.4131    0.0000 H   0  0  0  0  0  0  0  0  0  0  0  0
   14.2160    4.2181    0.0000 H   0  0  0  0  0  0  0  0  0  0  0  0
   12.4649    1.9730    0.0000 H   0  0  0  0  0  0  0  0  0  0  0  0
   13.7915    5.3012    0.0000 H   0  0  0  0  0  0  0  0  0  0  0  0
   13.2162    5.9630    0.0000 H   0  0  0  0  0  0  0  0  0  0  0  0
   12.5545    5.3877    0.0000 H   0  0  0  0  0  0  0  0  0  0  0  0
   11.0815    2.8369    0.0000 H   0  0  0  0  0  0  0  0  0  0  0  0
   10.3326    2.5643    0.0000 H   0  0  0  0  0  0  0  0  0  0  0  0
   10.6140    5.4141    0.0000 H   0  0  0  0  0  0  0  0  0  0  0  0
    4.5981   -4.4141    0.0000 H   0  0  0  0  0  0  0  0  0  0  0  0
    4.2690   -4.2241    0.0000 H   0  0  0  0  0  0  0  0  0  0  0  0
    6.0010   -4.2241    0.0000 H   0  0  0  0  0  0  0  0  0  0  0  0
    6.0010   -1.9841    0.0000 H   0  0  0  0  0  0  0  0  0  0  0  0
    4.2690   -1.9841    0.0000 H   0  0  0  0  0  0  0  0  0  0  0  0
   11.7656   -0.2077    0.0000 H   0  0  0  0  0  0  0  0  0  0  0  0
    8.2700    0.0859    0.0000 H   0  0  0  0  0  0  0  0  0  0  0  0
    8.6711    0.2801    0.0000 H   0  0  0  0  0  0  0  0  0  0  0  0
    8.2006    1.3708    0.0000 H   0  0  0  0  0  0  0  0  0  0  0  0
    7.4040   -1.4141    0.0000 H   0  0  0  0  0  0  0  0  0  0  0  0
    3.8015   -1.6292    0.0000 H   0  0  0  0  0  0  0  0  0  0  0  0
    3.0044   -1.6292    0.0000 H   0  0  0  0  0  0  0  0  0  0  0  0
    4.5981   -5.4141    0.0000 H   0  0  0  0  0  0  0  0  0  0  0  0
    3.4030   -4.7241    0.0000 H   0  0  0  0  0  0  0  0  0  0  0  0
    6.8671   -4.7241    0.0000 H   0  0  0  0  0  0  0  0  0  0  0  0
    5.4641    0.7059    0.0000 H   0  0  0  0  0  0  0  0  0  0  0  0
    8.5991   -1.7241    0.0000 H   0  0  0  0  0  0  0  0  0  0  0  0
    2.0000   -2.2941    0.0000 H   0  0  0  0  0  0  0  0  0  0  0  0
    9.7751   -1.1411    0.0000 H   0  0  0  0  0  0  0  0  0  0  0  0
   10.0021   -0.2941    0.0000 H   0  0  0  0  0  0  0  0  0  0  0  0
    9.1551   -0.0672    0.0000 H   0  0  0  0  0  0  0  0  0  0  0  0
    6.6210    3.3959    0.0000 H   0  0  0  0  0  0  0  0  0  0  0  0
    6.0010    4.0159    0.0000 H   0  0  0  0  0  0  0  0  0  0  0  0
    5.3810    3.3959    0.0000 H   0  0  0  0  0  0  0  0  0  0  0  0
  1 24  1  0  0  0  0
  1 31  1  0  0  0  0
  2 23  1  0  0  0  0
  2 56  1  0  0  0  0
  3 23  2  0  0  0  0
  4 25  1  0  0  0  0
  4 62  1  0  0  0  0
  5 25  2  0  0  0  0
  6 29  1  0  0  0  0
  6 30  1  0  0  0  0
 29  7  1  1  0  0  0
 34  7  1  6  0  0  0
 26  8  1  6  0  0  0
  8 69  1  0  0  0  0
 27  9  1  1  0  0  0
  9 70  1  0  0  0  0
 28 10  1  6  0  0  0
 10 71  1  0  0  0  0
 11 34  1  0  0  0  0
 11 38  1  0  0  0  0
 12 31  2  0  0  0  0
 13 36  1  0  0  0  0
 13 74  1  0  0  0  0
 14 40  1  0  0  0  0
 14 42  1  0  0  0  0
 15 40  2  0  0  0  0
 16 17  1  0  0  0  0
 16 19  1  0  0  0  0
 16 21  1  0  0  0  0
 16 43  1  1  0  0  0
 17 18  1  0  0  0  0
 17 23  1  6  0  0  0
 17 44  1  0  0  0  0
 18 20  1  0  0  0  0
 18 22  1  1  0  0  0
 18 45  1  0  0  0  0
 19 20  1  0  0  0  0
 19 46  1  0  0  0  0
 19 47  1  0  0  0  0
 20 48  1  0  0  0  0
 20 49  1  0  0  0  0
 21 24  1  0  0  0  0
 21 25  1  6  0  0  0
 21 50  1  0  0  0  0
 22 51  1  0  0  0  0
 22 52  1  0  0  0  0
 22 53  1  0  0  0  0
 24 54  1  0  0  0  0
 24 55  1  0  0  0  0
 26 27  1  0  0  0  0
 26 28  1  0  0  0  0
 26 57  1  0  0  0  0
 27 30  1  0  0  0  0
 27 58  1  0  0  0  0
 28 29  1  0  0  0  0
 28 59  1  0  0  0  0
 29 60  1  0  0  0  0
 30 36  1  1  0  0  0
 30 61  1  0  0  0  0
 31 33  1  0  0  0  0
 32 33  1  1  0  0  0
 32 35  1  0  0  0  0
 32 37  1  0  0  0  0
 32 63  1  0  0  0  0
 33 64  1  0  0  0  0
 33 65  1  0  0  0  0
 34 35  1  0  0  0  0
 34 66  1  0  0  0  0
 35 39  2  0  0  0  0
 36 67  1  0  0  0  0
 36 68  1  0  0  0  0
 37 38  2  0  0  0  0
 37 40  1  0  0  0  0
 38 72  1  0  0  0  0
 39 41  1  0  0  0  0
 39 73  1  0  0  0  0
 41 75  1  0  0  0  0
 41 76  1  0  0  0  0
 41 77  1  0  0  0  0
 42 78  1  0  0  0  0
 42 79  1  0  0  0  0
 42 80  1  0  0  0  0
M  END
> <PUBCHEM_COMPOUND_CID>
12047161

> <PUBCHEM_COMPOUND_CANONICALIZED>
1

> <PUBCHEM_CACTVS_COMPLEXITY>
1070

> <PUBCHEM_CACTVS_HBOND_ACCEPTOR>
15

> <PUBCHEM_CACTVS_HBOND_DONOR>
6

> <PUBCHEM_CACTVS_ROTATABLE_BOND>
13

> <PUBCHEM_CACTVS_SUBSKEYS>
AAADcfB4PAAAAAAAAAAAAAAAAAAAAYAAAAAkQAAAAAAAAAAAAAAAGgAACAAADRSwgAMCCAAABgCIAiDSCAAACAAgIAAACAEAAEgRFBYAIQAiUAAFoAAPIIPI7vyOgAAAAAAAAAAAAAAAAAAAAQAACAAAAA==

> <PUBCHEM_IUPAC_OPENEYE_NAME>
(1R,2S,5S)-2-[(1S)-1-carboxy-2-[2-[(2S,3E,4S)-3-ethylidene-5-methoxycarbonyl-2-[(2S,3R,4R,5R,6R)-3,4,5-trihydroxy-6-(hydroxymethyl)tetrahydropyran-2-yl]oxy-4H-pyran-4-yl]acetyl]oxy-ethyl]-5-methyl-cyclopentanecarboxylic acid

> <PUBCHEM_IUPAC_CAS_NAME>
(1R,2S,5S)-2-[(1S)-1-carboxy-2-[2-[(2S,3E,4S)-3-ethylidene-5-methoxycarbonyl-2-[[(2S,3R,4R,5R,6R)-3,4,5-trihydroxy-6-(hydroxymethyl)-2-oxanyl]oxy]-4H-pyran-4-yl]-1-oxoethoxy]ethyl]-5-methyl-1-cyclopentanecarboxylic acid

> <PUBCHEM_IUPAC_NAME_MARKUP>
(1<I>R</I>,2<I>S</I>,5<I>S</I>)-2-[(1<I>S</I>)-1-carboxy-2-[2-[(2<I>S</I>,3<I>E</I>,4<I>S</I>)-3-ethylidene-5-methoxycarbonyl-2-[(2<I>S</I>,3<I>R</I>,4<I>R</I>,5<I>R</I>,6<I>R</I>)-3,4,5-trihydroxy-6-(hydroxymethyl)oxan-2-yl]oxy-4<I>H</I>-pyran-4-yl]acetyl]oxyethyl]-5-methylcyclopentane-1-carboxylic acid

> <PUBCHEM_IUPAC_NAME>
(1R,2S,5S)-2-[(1S)-1-carboxy-2-[2-[(2S,3E,4S)-3-ethylidene-5-methoxycarbonyl-2-[(2S,3R,4R,5R,6R)-3,4,5-trihydroxy-6-(hydroxymethyl)oxan-2-yl]oxy-4H-pyran-4-yl]acetyl]oxyethyl]-5-methylcyclopentane-1-carboxylic acid

> <PUBCHEM_IUPAC_SYSTEMATIC_NAME>
(1R,2S,5S)-2-[(2S)-3-[2-[(2S,3E,4S)-3-ethylidene-2-[(2S,3R,4R,5R,6R)-6-(hydroxymethyl)-3,4,5-tris(oxidanyl)oxan-2-yl]oxy-5-methoxycarbonyl-4H-pyran-4-yl]ethanoyloxy]-1-oxidanyl-1-oxidanylidene-propan-2-yl]-5-methyl-cyclopentane-1-carboxylic acid

> <PUBCHEM_IUPAC_TRADITIONAL_NAME>
(1R,2S,5S)-2-[(1S)-2-[2-[(2S,3E,4S)-5-carbomethoxy-3-ethylidene-2-[(2S,3R,4R,5R,6R)-3,4,5-trihydroxy-6-methylol-tetrahydropyran-2-yl]oxy-4H-pyran-4-yl]acetyl]oxy-1-carboxy-ethyl]-5-methyl-cyclopentanecarboxylic acid

> <PUBCHEM_IUPAC_INCHI>
InChI=1S/C27H38O15/c1-4-12-14(7-18(29)39-9-15(23(33)34)13-6-5-11(2)19(13)24(35)36)16(25(37)38-3)10-40-26(12)42-27-22(32)21(31)20(30)17(8-28)41-27/h4,10-11,13-15,17,19-22,26-28,30-32H,5-9H2,1-3H3,(H,33,34)(H,35,36)/b12-4+/t11-,13+,14-,15+,17+,19+,20-,21+,22+,26-,27-/m0/s1

> <PUBCHEM_IUPAC_INCHIKEY>
HKHBHJCGEATJFY-BRWLDTCZSA-N

> <PUBCHEM_XLOGP3_AA>
-0.7

> <PUBCHEM_EXACT_MASS>
602.22107050

> <PUBCHEM_MOLECULAR_FORMULA>
C27H38O15

> <PUBCHEM_MOLECULAR_WEIGHT>
602.6

> <PUBCHEM_OPENEYE_CAN_SMILES>
CC=C1C(C(=COC1OC2C(C(C(C(O2)CO)O)O)O)C(=O)OC)CC(=O)OCC(C3CCC(C3C(=O)O)C)C(=O)O

> <PUBCHEM_OPENEYE_ISO_SMILES>
C/C=C/1\[C@@H](C(=CO[C@H]1O[C@H]2[C@@H]([C@@H]([C@H]([C@H](O2)CO)O)O)O)C(=O)OC)CC(=O)OC[C@H]([C@H]3CC[C@@H]([C@H]3C(=O)O)C)C(=O)O

> <PUBCHEM_CACTVS_TPSA>
236

> <PUBCHEM_MONOISOTOPIC_WEIGHT>
602.22107050

> <PUBCHEM_TOTAL_CHARGE>
0

> <PUBCHEM_HEAVY_ATOM_COUNT>
42

> <PUBCHEM_ATOM_DEF_STEREO_COUNT>
11

> <PUBCHEM_ATOM_UDEF_STEREO_COUNT>
0

> <PUBCHEM_BOND_DEF_STEREO_COUNT>
1

> <PUBCHEM_BOND_UDEF_STEREO_COUNT>
0

> <PUBCHEM_ISOTOPIC_ATOM_COUNT>
0

> <PUBCHEM_COMPONENT_COUNT>
1

> <PUBCHEM_CACTVS_TAUTO_COUNT>
-1

> <PUBCHEM_COORDINATE_TYPE>
1
5
255

> <PUBCHEM_BONDANNOTATIONS>
28  10  6
16  43  5
17  23  6
18  22  5
21  25  6
30  36  5
32  33  5
29  7  5
34  7  6
26  8  6
27  9  5

$$$$
