 
  -OEChem-10192104222D

 29 30  0     0  0  0  0  0  0999 V2000
    3.0000    0.0375    0.0000 S   0  0  0  0  0  0  0  0  0  0  0  0
    3.9706    2.5320    0.0000 O   0  0  0  0  0  0  0  0  0  0  0  0
    4.0000    0.0375    0.0000 O   0  0  0  0  0  0  0  0  0  0  0  0
    2.0000    0.0375    0.0000 O   0  0  0  0  0  0  0  0  0  0  0  0
    2.1340   -4.4625    0.0000 O   0  5  0  0  0  0  0  0  0  0  0  0
    3.8660   -4.4625    0.0000 O   0  0  0  0  0  0  0  0  0  0  0  0
    6.3500    3.7580    0.0000 O   0  5  0  0  0  0  0  0  0  0  0  0
    4.7676    4.4625    0.0000 O   0  0  0  0  0  0  0  0  0  0  0  0
    3.0000   -3.9625    0.0000 N   0  3  0  0  0  0  0  0  0  0  0  0
    5.3554    3.6535    0.0000 N   0  3  0  0  0  0  0  0  0  0  0  0
    3.0000    1.0375    0.0000 C   0  0  0  0  0  0  0  0  0  0  0  0
    3.0000   -0.9625    0.0000 C   0  0  0  0  0  0  0  0  0  0  0  0
    3.8660    1.5375    0.0000 C   0  0  0  0  0  0  0  0  0  0  0  0
    2.1340   -1.4625    0.0000 C   0  0  0  0  0  0  0  0  0  0  0  0
    3.8660   -1.4625    0.0000 C   0  0  0  0  0  0  0  0  0  0  0  0
    4.7796    1.1308    0.0000 C   0  0  0  0  0  0  0  0  0  0  0  0
    2.1340   -2.4625    0.0000 C   0  0  0  0  0  0  0  0  0  0  0  0
    3.8660   -2.4625    0.0000 C   0  0  0  0  0  0  0  0  0  0  0  0
    3.0000   -2.9625    0.0000 C   0  0  0  0  0  0  0  0  0  0  0  0
    5.4487    1.8739    0.0000 C   0  0  0  0  0  0  0  0  0  0  0  0
    4.9487    2.7399    0.0000 C   0  0  0  0  0  0  0  0  0  0  0  0
    2.7880    1.6201    0.0000 H   0  0  0  0  0  0  0  0  0  0  0  0
    2.3894    0.9298    0.0000 H   0  0  0  0  0  0  0  0  0  0  0  0
    1.5970   -1.1525    0.0000 H   0  0  0  0  0  0  0  0  0  0  0  0
    4.4030   -1.1525    0.0000 H   0  0  0  0  0  0  0  0  0  0  0  0
    4.9085    0.5243    0.0000 H   0  0  0  0  0  0  0  0  0  0  0  0
    1.5970   -2.7725    0.0000 H   0  0  0  0  0  0  0  0  0  0  0  0
    4.4030   -2.7725    0.0000 H   0  0  0  0  0  0  0  0  0  0  0  0
    6.0653    1.8091    0.0000 H   0  0  0  0  0  0  0  0  0  0  0  0
  1  3  2  0  0  0  0
  1  4  2  0  0  0  0
  1 11  1  0  0  0  0
  1 12  1  0  0  0  0
  2 13  1  0  0  0  0
  2 21  1  0  0  0  0
  5  9  1  0  0  0  0
  6  9  2  0  0  0  0
  7 10  1  0  0  0  0
  8 10  2  0  0  0  0
  9 19  1  0  0  0  0
 10 21  1  0  0  0  0
 11 13  1  0  0  0  0
 11 22  1  0  0  0  0
 11 23  1  0  0  0  0
 12 14  2  0  0  0  0
 12 15  1  0  0  0  0
 13 16  2  0  0  0  0
 14 17  1  0  0  0  0
 14 24  1  0  0  0  0
 15 18  2  0  0  0  0
 15 25  1  0  0  0  0
 16 20  1  0  0  0  0
 16 26  1  0  0  0  0
 17 19  2  0  0  0  0
 17 27  1  0  0  0  0
 18 19  1  0  0  0  0
 18 28  1  0  0  0  0
 20 21  2  0  0  0  0
 20 29  1  0  0  0  0
M  CHG  4   5  -1   7  -1   9   1  10   1
M  END
> <PUBCHEM_COMPOUND_CID>
71397608

> <PUBCHEM_COMPOUND_CANONICALIZED>
1

> <PUBCHEM_CACTVS_COMPLEXITY>
496

> <PUBCHEM_CACTVS_HBOND_ACCEPTOR>
7

> <PUBCHEM_CACTVS_HBOND_DONOR>
0

> <PUBCHEM_CACTVS_ROTATABLE_BOND>
3

> <PUBCHEM_CACTVS_SUBSKEYS>
AAADccBzOABAAAAAAAAAAAAAAAAAASAAAAAwAAAAAAAAAAABwAAAHgQEAAAACAyF0ACwxYAQREqJAKVSU3DCCAAsKhAoiBkGbMoMJjKktZuKOSDkwBEo6Ye8AAAAAAQAAAAAAAAACAAAAAAAAAAAAAAAAA==

> <PUBCHEM_IUPAC_OPENEYE_NAME>
2-nitro-5-[(4-nitrophenyl)sulfonylmethyl]furan

> <PUBCHEM_IUPAC_CAS_NAME>
2-nitro-5-[(4-nitrophenyl)sulfonylmethyl]furan

> <PUBCHEM_IUPAC_NAME_MARKUP>
2-nitro-5-[(4-nitrophenyl)sulfonylmethyl]furan

> <PUBCHEM_IUPAC_NAME>
2-nitro-5-[(4-nitrophenyl)sulfonylmethyl]furan

> <PUBCHEM_IUPAC_SYSTEMATIC_NAME>
2-nitro-5-[(4-nitrophenyl)sulfonylmethyl]furan

> <PUBCHEM_IUPAC_TRADITIONAL_NAME>
2-nitro-5-(nosylmethyl)furan

> <PUBCHEM_IUPAC_INCHI>
InChI=1S/C11H8N2O7S/c14-12(15)8-1-4-10(5-2-8)21(18,19)7-9-3-6-11(20-9)13(16)17/h1-6H,7H2

> <PUBCHEM_IUPAC_INCHIKEY>
DSIFNCIRGNHSLK-UHFFFAOYSA-N

> <PUBCHEM_XLOGP3_AA>
1.7

> <PUBCHEM_EXACT_MASS>
312.00522177

> <PUBCHEM_MOLECULAR_FORMULA>
C11H8N2O7S

> <PUBCHEM_MOLECULAR_WEIGHT>
312.26

> <PUBCHEM_OPENEYE_CAN_SMILES>
C1=CC(=CC=C1[N+](=O)[O-])S(=O)(=O)CC2=CC=C(O2)[N+](=O)[O-]

> <PUBCHEM_OPENEYE_ISO_SMILES>
C1=CC(=CC=C1[N+](=O)[O-])S(=O)(=O)CC2=CC=C(O2)[N+](=O)[O-]

> <PUBCHEM_CACTVS_TPSA>
147

> <PUBCHEM_MONOISOTOPIC_WEIGHT>
312.00522177

> <PUBCHEM_TOTAL_CHARGE>
0

> <PUBCHEM_HEAVY_ATOM_COUNT>
21

> <PUBCHEM_ATOM_DEF_STEREO_COUNT>
0

> <PUBCHEM_ATOM_UDEF_STEREO_COUNT>
0

> <PUBCHEM_BOND_DEF_STEREO_COUNT>
0

> <PUBCHEM_BOND_UDEF_STEREO_COUNT>
0

> <PUBCHEM_ISOTOPIC_ATOM_COUNT>
0

> <PUBCHEM_COMPONENT_COUNT>
1

> <PUBCHEM_CACTVS_TAUTO_COUNT>
-1

> <PUBCHEM_COORDINATE_TYPE>
1
5
255

> <PUBCHEM_BONDANNOTATIONS>
12  14  8
12  15  8
13  16  8
14  17  8
15  18  8
16  20  8
17  19  8
18  19  8
2  13  8
2  21  8
20  21  8

$$$$
