 
  -OEChem-10192103452D

 71 74  0     1  0  0  0  0  0999 V2000
    6.8671   -0.0000    0.0000 S   0  0  0  0  0  0  0  0  0  0  0  0
    8.5991    4.0000    0.0000 O   0  0  0  0  0  0  0  0  0  0  0  0
    5.1350   -4.0000    0.0000 O   0  0  0  0  0  0  0  0  0  0  0  0
    8.5991    7.0000    0.0000 O   0  0  0  0  0  0  0  0  0  0  0  0
    5.1350   -7.0000    0.0000 O   0  0  0  0  0  0  0  0  0  0  0  0
   10.3312    6.0000    0.0000 O   0  0  0  0  0  0  0  0  0  0  0  0
    3.4030   -6.0000    0.0000 O   0  0  0  0  0  0  0  0  0  0  0  0
    6.8671    6.0000    0.0000 O   0  0  0  0  0  0  0  0  0  0  0  0
    6.8671   -6.0000    0.0000 O   0  0  0  0  0  0  0  0  0  0  0  0
   11.1972    4.5000    0.0000 O   0  0  0  0  0  0  0  0  0  0  0  0
    2.5369   -4.5000    0.0000 O   0  0  0  0  0  0  0  0  0  0  0  0
    7.8671    0.0000    0.0000 O   0  0  0  0  0  0  0  0  0  0  0  0
    5.8671   -0.0000    0.0000 O   0  0  0  0  0  0  0  0  0  0  0  0
    6.8671    4.0000    0.0000 N   0  0  0  0  0  0  0  0  0  0  0  0
    6.8671   -4.0000    0.0000 N   0  0  0  0  0  0  0  0  0  0  0  0
    8.5991    6.0000    0.0000 C   0  0  1  0  0  0  0  0  0  0  0  0
    5.1350   -6.0000    0.0000 C   0  0  1  0  0  0  0  0  0  0  0  0
    9.4651    5.5000    0.0000 C   0  0  2  0  0  0  0  0  0  0  0  0
    4.2690   -5.5000    0.0000 C   0  0  2  0  0  0  0  0  0  0  0  0
    7.7331    5.5000    0.0000 C   0  0  2  0  0  0  0  0  0  0  0  0
    6.0010   -5.5000    0.0000 C   0  0  2  0  0  0  0  0  0  0  0  0
    9.4651    4.5000    0.0000 C   0  0  1  0  0  0  0  0  0  0  0  0
    4.2690   -4.5000    0.0000 C   0  0  1  0  0  0  0  0  0  0  0  0
    7.7331    4.5000    0.0000 C   0  0  3  0  0  0  0  0  0  0  0  0
    6.0010   -4.5000    0.0000 C   0  0  3  0  0  0  0  0  0  0  0  0
   10.3312    4.0000    0.0000 C   0  0  0  0  0  0  0  0  0  0  0  0
    3.4030   -4.0000    0.0000 C   0  0  0  0  0  0  0  0  0  0  0  0
    6.8671    3.0000    0.0000 C   0  0  0  0  0  0  0  0  0  0  0  0
    6.8671   -3.0000    0.0000 C   0  0  0  0  0  0  0  0  0  0  0  0
    7.7331    2.5000    0.0000 C   0  0  0  0  0  0  0  0  0  0  0  0
    6.0010   -2.5000    0.0000 C   0  0  0  0  0  0  0  0  0  0  0  0
    6.0010    2.5000    0.0000 C   0  0  0  0  0  0  0  0  0  0  0  0
    7.7331   -2.5000    0.0000 C   0  0  0  0  0  0  0  0  0  0  0  0
    6.8671    1.0000    0.0000 C   0  0  0  0  0  0  0  0  0  0  0  0
    6.8671   -1.0000    0.0000 C   0  0  0  0  0  0  0  0  0  0  0  0
    7.7331    1.5000    0.0000 C   0  0  0  0  0  0  0  0  0  0  0  0
    6.0010   -1.5000    0.0000 C   0  0  0  0  0  0  0  0  0  0  0  0
    6.0010    1.5000    0.0000 C   0  0  0  0  0  0  0  0  0  0  0  0
    7.7331   -1.5000    0.0000 C   0  0  0  0  0  0  0  0  0  0  0  0
    9.1360    6.3100    0.0000 H   0  0  0  0  0  0  0  0  0  0  0  0
    4.5981   -6.3100    0.0000 H   0  0  0  0  0  0  0  0  0  0  0  0
   10.0021    5.1900    0.0000 H   0  0  0  0  0  0  0  0  0  0  0  0
    4.2690   -6.1200    0.0000 H   0  0  0  0  0  0  0  0  0  0  0  0
    7.7331    6.1200    0.0000 H   0  0  0  0  0  0  0  0  0  0  0  0
    6.0010   -6.1200    0.0000 H   0  0  0  0  0  0  0  0  0  0  0  0
    9.4651    3.8800    0.0000 H   0  0  0  0  0  0  0  0  0  0  0  0
    4.2690   -3.8800    0.0000 H   0  0  0  0  0  0  0  0  0  0  0  0
    7.7331    3.8800    0.0000 H   0  0  0  0  0  0  0  0  0  0  0  0
    6.0010   -3.8800    0.0000 H   0  0  0  0  0  0  0  0  0  0  0  0
    9.9326    3.5250    0.0000 H   0  0  0  0  0  0  0  0  0  0  0  0
   10.7297    3.5250    0.0000 H   0  0  0  0  0  0  0  0  0  0  0  0
    3.8015   -3.5250    0.0000 H   0  0  0  0  0  0  0  0  0  0  0  0
    3.0044   -3.5250    0.0000 H   0  0  0  0  0  0  0  0  0  0  0  0
    6.3301    4.3100    0.0000 H   0  0  0  0  0  0  0  0  0  0  0  0
    7.4040   -4.3100    0.0000 H   0  0  0  0  0  0  0  0  0  0  0  0
    9.1360    7.3100    0.0000 H   0  0  0  0  0  0  0  0  0  0  0  0
    4.5981   -7.3100    0.0000 H   0  0  0  0  0  0  0  0  0  0  0  0
   10.3312    6.6200    0.0000 H   0  0  0  0  0  0  0  0  0  0  0  0
    3.4030   -6.6200    0.0000 H   0  0  0  0  0  0  0  0  0  0  0  0
    6.8671    6.6200    0.0000 H   0  0  0  0  0  0  0  0  0  0  0  0
    6.8671   -6.6200    0.0000 H   0  0  0  0  0  0  0  0  0  0  0  0
   11.7341    4.1900    0.0000 H   0  0  0  0  0  0  0  0  0  0  0  0
    2.0000   -4.1900    0.0000 H   0  0  0  0  0  0  0  0  0  0  0  0
    8.2700    2.8100    0.0000 H   0  0  0  0  0  0  0  0  0  0  0  0
    5.4641   -2.8100    0.0000 H   0  0  0  0  0  0  0  0  0  0  0  0
    5.4641    2.8100    0.0000 H   0  0  0  0  0  0  0  0  0  0  0  0
    8.2700   -2.8100    0.0000 H   0  0  0  0  0  0  0  0  0  0  0  0
    8.2700    1.1900    0.0000 H   0  0  0  0  0  0  0  0  0  0  0  0
    5.4641   -1.1900    0.0000 H   0  0  0  0  0  0  0  0  0  0  0  0
    5.4641    1.1900    0.0000 H   0  0  0  0  0  0  0  0  0  0  0  0
    8.2700   -1.1900    0.0000 H   0  0  0  0  0  0  0  0  0  0  0  0
  1 12  2  0  0  0  0
  1 13  2  0  0  0  0
  1 34  1  0  0  0  0
  1 35  1  0  0  0  0
  2 22  1  0  0  0  0
  2 24  1  0  0  0  0
  3 23  1  0  0  0  0
  3 25  1  0  0  0  0
 16  4  1  1  0  0  0
  4 56  1  0  0  0  0
 17  5  1  1  0  0  0
  5 57  1  0  0  0  0
 18  6  1  1  0  0  0
  6 58  1  0  0  0  0
 19  7  1  1  0  0  0
  7 59  1  0  0  0  0
 20  8  1  6  0  0  0
  8 60  1  0  0  0  0
 21  9  1  6  0  0  0
  9 61  1  0  0  0  0
 10 26  1  0  0  0  0
 10 62  1  0  0  0  0
 11 27  1  0  0  0  0
 11 63  1  0  0  0  0
 14 24  1  0  0  0  0
 14 28  1  0  0  0  0
 14 54  1  0  0  0  0
 15 25  1  0  0  0  0
 15 29  1  0  0  0  0
 15 55  1  0  0  0  0
 16 18  1  0  0  0  0
 16 20  1  0  0  0  0
 16 40  1  0  0  0  0
 17 19  1  0  0  0  0
 17 21  1  0  0  0  0
 17 41  1  0  0  0  0
 18 22  1  0  0  0  0
 18 42  1  0  0  0  0
 19 23  1  0  0  0  0
 19 43  1  0  0  0  0
 20 24  1  0  0  0  0
 20 44  1  0  0  0  0
 21 25  1  0  0  0  0
 21 45  1  0  0  0  0
 22 26  1  1  0  0  0
 22 46  1  0  0  0  0
 23 27  1  1  0  0  0
 23 47  1  0  0  0  0
 24 48  1  0  0  0  0
 25 49  1  0  0  0  0
 26 50  1  0  0  0  0
 26 51  1  0  0  0  0
 27 52  1  0  0  0  0
 27 53  1  0  0  0  0
 28 30  2  0  0  0  0
 28 32  1  0  0  0  0
 29 31  2  0  0  0  0
 29 33  1  0  0  0  0
 30 36  1  0  0  0  0
 30 64  1  0  0  0  0
 31 37  1  0  0  0  0
 31 65  1  0  0  0  0
 32 38  2  0  0  0  0
 32 66  1  0  0  0  0
 33 39  2  0  0  0  0
 33 67  1  0  0  0  0
 34 36  2  0  0  0  0
 34 38  1  0  0  0  0
 35 37  2  0  0  0  0
 35 39  1  0  0  0  0
 36 68  1  0  0  0  0
 37 69  1  0  0  0  0
 38 70  1  0  0  0  0
 39 71  1  0  0  0  0
M  END
> <PUBCHEM_COMPOUND_CID>
121439

> <PUBCHEM_COMPOUND_CANONICALIZED>
1

> <PUBCHEM_CACTVS_COMPLEXITY>
813

> <PUBCHEM_CACTVS_HBOND_ACCEPTOR>
14

> <PUBCHEM_CACTVS_HBOND_DONOR>
10

> <PUBCHEM_CACTVS_ROTATABLE_BOND>
8

> <PUBCHEM_CACTVS_SUBSKEYS>
AAADcfB7PABAAAAAAAAAAAAAAAAAAAAAAAA0aIEAAAAAAAABQAAAHgQQCAAACBzh0AYwwYLABgqAACRCQHDCAAAhChAIiJgIZIkLMCLgkZGOYAhnkAD7yAfwcAYAAAQAAAAAAAAACAAAAAAAAAAAAAAAAA==

> <PUBCHEM_IUPAC_OPENEYE_NAME>
(2R,3R,4S,5R)-2-(hydroxymethyl)-6-[4-[4-[[(3R,4S,5R,6R)-3,4,5-trihydroxy-6-(hydroxymethyl)tetrahydropyran-2-yl]amino]phenyl]sulfonylanilino]tetrahydropyran-3,4,5-triol

> <PUBCHEM_IUPAC_CAS_NAME>
(2R,3R,4S,5R)-2-(hydroxymethyl)-6-[4-[4-[[(3R,4S,5R,6R)-3,4,5-trihydroxy-6-(hydroxymethyl)-2-oxanyl]amino]phenyl]sulfonylanilino]oxane-3,4,5-triol

> <PUBCHEM_IUPAC_NAME_MARKUP>
(2<I>R</I>,3<I>R</I>,4<I>S</I>,5<I>R</I>)-2-(hydroxymethyl)-6-[4-[4-[[(3<I>R</I>,4<I>S</I>,5<I>R</I>,6<I>R</I>)-3,4,5-trihydroxy-6-(hydroxymethyl)oxan-2-yl]amino]phenyl]sulfonylanilino]oxane-3,4,5-triol

> <PUBCHEM_IUPAC_NAME>
(2R,3R,4S,5R)-2-(hydroxymethyl)-6-[4-[4-[[(3R,4S,5R,6R)-3,4,5-trihydroxy-6-(hydroxymethyl)oxan-2-yl]amino]phenyl]sulfonylanilino]oxane-3,4,5-triol

> <PUBCHEM_IUPAC_SYSTEMATIC_NAME>
(2R,3R,4S,5R)-2-(hydroxymethyl)-6-[[4-[4-[[(3R,4S,5R,6R)-6-(hydroxymethyl)-3,4,5-tris(oxidanyl)oxan-2-yl]amino]phenyl]sulfonylphenyl]amino]oxane-3,4,5-triol

> <PUBCHEM_IUPAC_TRADITIONAL_NAME>
(2R,3R,4S,5R)-2-methylol-6-[4-[4-[[(3R,4S,5R,6R)-3,4,5-trihydroxy-6-methylol-tetrahydropyran-2-yl]amino]phenyl]sulfonylanilino]tetrahydropyran-3,4,5-triol

> <PUBCHEM_IUPAC_INCHI>
InChI=1S/C24H32N2O12S/c27-9-15-17(29)19(31)21(33)23(37-15)25-11-1-5-13(6-2-11)39(35,36)14-7-3-12(4-8-14)26-24-22(34)20(32)18(30)16(10-28)38-24/h1-8,15-34H,9-10H2/t15-,16-,17+,18+,19+,20+,21-,22-,23?,24?/m1/s1

> <PUBCHEM_IUPAC_INCHIKEY>
WXCZDFLSCLWVSR-FHVCQGAUSA-N

> <PUBCHEM_XLOGP3_AA>
-1.6

> <PUBCHEM_EXACT_MASS>
572.16759563

> <PUBCHEM_MOLECULAR_FORMULA>
C24H32N2O12S

> <PUBCHEM_MOLECULAR_WEIGHT>
572.6

> <PUBCHEM_OPENEYE_CAN_SMILES>
C1=CC(=CC=C1NC2C(C(C(C(O2)CO)O)O)O)S(=O)(=O)C3=CC=C(C=C3)NC4C(C(C(C(O4)CO)O)O)O

> <PUBCHEM_OPENEYE_ISO_SMILES>
C1=CC(=CC=C1NC2[C@@H]([C@H]([C@H]([C@H](O2)CO)O)O)O)S(=O)(=O)C3=CC=C(C=C3)NC4[C@@H]([C@H]([C@H]([C@H](O4)CO)O)O)O

> <PUBCHEM_CACTVS_TPSA>
247

> <PUBCHEM_MONOISOTOPIC_WEIGHT>
572.16759563

> <PUBCHEM_TOTAL_CHARGE>
0

> <PUBCHEM_HEAVY_ATOM_COUNT>
39

> <PUBCHEM_ATOM_DEF_STEREO_COUNT>
8

> <PUBCHEM_ATOM_UDEF_STEREO_COUNT>
2

> <PUBCHEM_BOND_DEF_STEREO_COUNT>
0

> <PUBCHEM_BOND_UDEF_STEREO_COUNT>
0

> <PUBCHEM_ISOTOPIC_ATOM_COUNT>
0

> <PUBCHEM_COMPONENT_COUNT>
1

> <PUBCHEM_CACTVS_TAUTO_COUNT>
1

> <PUBCHEM_COORDINATE_TYPE>
1
5
255

> <PUBCHEM_BONDANNOTATIONS>
24  14  3
25  15  3
22  26  5
23  27  5
28  30  8
28  32  8
29  31  8
29  33  8
30  36  8
31  37  8
32  38  8
33  39  8
34  36  8
34  38  8
35  37  8
35  39  8
16  4  5
17  5  5
18  6  5
19  7  5
20  8  6
21  9  6

$$$$
